+ 0.5 0 2 cbr 1000 ------- 1 0.0 3.0 0 0
- 0.5 0 2 cbr 1000 ------- 1 0.0 3.0 0 0
r 0.5108 0 2 cbr 1000 ------- 1 0.0 3.0 0 0
+ 0.5108 2 3 cbr 1000 ------- 1 0.0 3.0 0 0
- 0.5108 2 3 cbr 1000 ------- 1 0.0 3.0 0 0
r 0.5348 2 3 cbr 1000 ------- 1 0.0 3.0 0 0
+ 0.66 0 2 cbr 1000 ------- 1 0.0 3.0 1 1
- 0.66 0 2 cbr 1000 ------- 1 0.0 3.0 1 1
r 0.6708 0 2 cbr 1000 ------- 1 0.0 3.0 1 1
+ 0.6708 2 3 cbr 1000 ------- 1 0.0 3.0 1 1
- 0.6708 2 3 cbr 1000 ------- 1 0.0 3.0 1 1
r 0.6948 2 3 cbr 1000 ------- 1 0.0 3.0 1 1
+ 0.82 0 2 cbr 1000 ------- 1 0.0 3.0 2 2
- 0.82 0 2 cbr 1000 ------- 1 0.0 3.0 2 2
r 0.8308 0 2 cbr 1000 ------- 1 0.0 3.0 2 2
+ 0.8308 2 3 cbr 1000 ------- 1 0.0 3.0 2 2
- 0.8308 2 3 cbr 1000 ------- 1 0.0 3.0 2 2
r 0.8548 2 3 cbr 1000 ------- 1 0.0 3.0 2 2
+ 0.98 0 2 cbr 1000 ------- 1 0.0 3.0 3 3
- 0.98 0 2 cbr 1000 ------- 1 0.0 3.0 3 3
r 0.9908 0 2 cbr 1000 ------- 1 0.0 3.0 3 3
+ 0.9908 2 3 cbr 1000 ------- 1 0.0 3.0 3 3
- 0.9908 2 3 cbr 1000 ------- 1 0.0 3.0 3 3
r 1.0148 2 3 cbr 1000 ------- 1 0.0 3.0 3 3
+ 1.14 0 2 cbr 1000 ------- 1 0.0 3.0 4 4
- 1.14 0 2 cbr 1000 ------- 1 0.0 3.0 4 4
r 1.1508 0 2 cbr 1000 ------- 1 0.0 3.0 4 4
+ 1.1508 2 3 cbr 1000 ------- 1 0.0 3.0 4 4
- 1.1508 2 3 cbr 1000 ------- 1 0.0 3.0 4 4
r 1.1748 2 3 cbr 1000 ------- 1 0.0 3.0 4 4
+ 1.3 0 2 cbr 1000 ------- 1 0.0 3.0 5 5
- 1.3 0 2 cbr 1000 ------- 1 0.0 3.0 5 5
r 1.3108 0 2 cbr 1000 ------- 1 0.0 3.0 5 5
+ 1.3108 2 3 cbr 1000 ------- 1 0.0 3.0 5 5
- 1.3108 2 3 cbr 1000 ------- 1 0.0 3.0 5 5
r 1.3348 2 3 cbr 1000 ------- 1 0.0 3.0 5 5
+ 1.46 0 2 cbr 1000 ------- 1 0.0 3.0 6 6
- 1.46 0 2 cbr 1000 ------- 1 0.0 3.0 6 6
r 1.4708 0 2 cbr 1000 ------- 1 0.0 3.0 6 6
+ 1.4708 2 3 cbr 1000 ------- 1 0.0 3.0 6 6
- 1.4708 2 3 cbr 1000 ------- 1 0.0 3.0 6 6
r 1.4948 2 3 cbr 1000 ------- 1 0.0 3.0 6 6
+ 1.62 0 2 cbr 1000 ------- 1 0.0 3.0 7 7
- 1.62 0 2 cbr 1000 ------- 1 0.0 3.0 7 7
r 1.6308 0 2 cbr 1000 ------- 1 0.0 3.0 7 7
+ 1.6308 2 3 cbr 1000 ------- 1 0.0 3.0 7 7
- 1.6308 2 3 cbr 1000 ------- 1 0.0 3.0 7 7
r 1.6548 2 3 cbr 1000 ------- 1 0.0 3.0 7 7
+ 1.78 0 2 cbr 1000 ------- 1 0.0 3.0 8 8
- 1.78 0 2 cbr 1000 ------- 1 0.0 3.0 8 8
r 1.7908 0 2 cbr 1000 ------- 1 0.0 3.0 8 8
+ 1.7908 2 3 cbr 1000 ------- 1 0.0 3.0 8 8
+ 1.94 0 2 cbr 1000 ------- 1 0.0 3.0 9 9
- 1.94 0 2 cbr 1000 ------- 1 0.0 3.0 9 9
r 1.9508 0 2 cbr 1000 ------- 1 0.0 3.0 9 9
+ 1.9508 2 3 cbr 1000 ------- 1 0.0 3.0 9 9
+ 2.1 0 2 cbr 1000 ------- 1 0.0 3.0 10 10
- 2.1 0 2 cbr 1000 ------- 1 0.0 3.0 10 10
r 2.1108 0 2 cbr 1000 ------- 1 0.0 3.0 10 10
+ 2.1108 2 3 cbr 1000 ------- 1 0.0 3.0 10 10
+ 2.26 0 2 cbr 1000 ------- 1 0.0 3.0 11 11
- 2.26 0 2 cbr 1000 ------- 1 0.0 3.0 11 11
r 2.2708 0 2 cbr 1000 ------- 1 0.0 3.0 11 11
+ 2.2708 2 3 cbr 1000 ------- 1 0.0 3.0 11 11
+ 2.42 0 2 cbr 1000 ------- 1 0.0 3.0 12 12
- 2.42 0 2 cbr 1000 ------- 1 0.0 3.0 12 12
r 2.4308 0 2 cbr 1000 ------- 1 0.0 3.0 12 12
+ 2.4308 2 3 cbr 1000 ------- 1 0.0 3.0 12 12
+ 2.58 0 2 cbr 1000 ------- 1 0.0 3.0 13 13
- 2.58 0 2 cbr 1000 ------- 1 0.0 3.0 13 13
r 2.5908 0 2 cbr 1000 ------- 1 0.0 3.0 13 13
+ 2.5908 2 3 cbr 1000 ------- 1 0.0 3.0 13 13
+ 2.74 0 2 cbr 1000 ------- 1 0.0 3.0 14 14
- 2.74 0 2 cbr 1000 ------- 1 0.0 3.0 14 14
r 2.7508 0 2 cbr 1000 ------- 1 0.0 3.0 14 14
+ 2.7508 2 3 cbr 1000 ------- 1 0.0 3.0 14 14
- 2.7508 2 3 cbr 1000 ------- 1 0.0 3.0 14 14
r 2.7748 2 3 cbr 1000 ------- 1 0.0 3.0 14 14
+ 2.9 0 2 cbr 1000 ------- 1 0.0 3.0 15 15
- 2.9 0 2 cbr 1000 ------- 1 0.0 3.0 15 15
r 2.9108 0 2 cbr 1000 ------- 1 0.0 3.0 15 15
+ 2.9108 2 3 cbr 1000 ------- 1 0.0 3.0 15 15
+ 3.06 0 2 cbr 1000 ------- 1 0.0 3.0 16 16
- 3.06 0 2 cbr 1000 ------- 1 0.0 3.0 16 16
r 3.0708 0 2 cbr 1000 ------- 1 0.0 3.0 16 16
+ 3.0708 2 3 cbr 1000 ------- 1 0.0 3.0 16 16
+ 3.22 0 2 cbr 1000 ------- 1 0.0 3.0 17 17
- 3.22 0 2 cbr 1000 ------- 1 0.0 3.0 17 17
r 3.2308 0 2 cbr 1000 ------- 1 0.0 3.0 17 17
+ 3.2308 2 3 cbr 1000 ------- 1 0.0 3.0 17 17
+ 3.38 0 2 cbr 1000 ------- 1 0.0 3.0 18 18
- 3.38 0 2 cbr 1000 ------- 1 0.0 3.0 18 18
r 3.3908 0 2 cbr 1000 ------- 1 0.0 3.0 18 18
+ 3.3908 2 3 cbr 1000 ------- 1 0.0 3.0 18 18
+ 3.54 0 2 cbr 1000 ------- 1 0.0 3.0 19 19
- 3.54 0 2 cbr 1000 ------- 1 0.0 3.0 19 19
r 3.5508 0 2 cbr 1000 ------- 1 0.0 3.0 19 19
+ 3.5508 2 3 cbr 1000 ------- 1 0.0 3.0 19 19
+ 3.7 0 2 cbr 1000 ------- 1 0.0 3.0 20 20
- 3.7 0 2 cbr 1000 ------- 1 0.0 3.0 20 20
r 3.7108 0 2 cbr 1000 ------- 1 0.0 3.0 20 20
+ 3.7108 2 3 cbr 1000 ------- 1 0.0 3.0 20 20
+ 3.86 0 2 cbr 1000 ------- 1 0.0 3.0 21 21
- 3.86 0 2 cbr 1000 ------- 1 0.0 3.0 21 21
r 3.8708 0 2 cbr 1000 ------- 1 0.0 3.0 21 21
+ 3.8708 2 3 cbr 1000 ------- 1 0.0 3.0 21 21
- 3.8708 2 3 cbr 1000 ------- 1 0.0 3.0 21 21
r 3.8948 2 3 cbr 1000 ------- 1 0.0 3.0 21 21
+ 4.02 0 2 cbr 1000 ------- 1 0.0 3.0 22 22
- 4.02 0 2 cbr 1000 ------- 1 0.0 3.0 22 22
r 4.0308 0 2 cbr 1000 ------- 1 0.0 3.0 22 22
+ 4.0308 2 3 cbr 1000 ------- 1 0.0 3.0 22 22
+ 4.18 0 2 cbr 1000 ------- 1 0.0 3.0 23 23
- 4.18 0 2 cbr 1000 ------- 1 0.0 3.0 23 23
r 4.1908 0 2 cbr 1000 ------- 1 0.0 3.0 23 23
+ 4.1908 2 3 cbr 1000 ------- 1 0.0 3.0 23 23
+ 4.34 0 2 cbr 1000 ------- 1 0.0 3.0 24 24
- 4.34 0 2 cbr 1000 ------- 1 0.0 3.0 24 24
r 4.3508 0 2 cbr 1000 ------- 1 0.0 3.0 24 24
+ 4.3508 2 3 cbr 1000 ------- 1 0.0 3.0 24 24
+ 4.5 0 2 cbr 1000 ------- 1 0.0 3.0 25 25
- 4.5 0 2 cbr 1000 ------- 1 0.0 3.0 25 25
r 4.5108 0 2 cbr 1000 ------- 1 0.0 3.0 25 25
+ 4.5108 2 3 cbr 1000 ------- 1 0.0 3.0 25 25
+ 4.66 0 2 cbr 1000 ------- 1 0.0 3.0 26 26
- 4.66 0 2 cbr 1000 ------- 1 0.0 3.0 26 26
r 4.6708 0 2 cbr 1000 ------- 1 0.0 3.0 26 26
+ 4.6708 2 3 cbr 1000 ------- 1 0.0 3.0 26 26
+ 4.82 0 2 cbr 1000 ------- 1 0.0 3.0 27 27
- 4.82 0 2 cbr 1000 ------- 1 0.0 3.0 27 27
r 4.8308 0 2 cbr 1000 ------- 1 0.0 3.0 27 27
+ 4.8308 2 3 cbr 1000 ------- 1 0.0 3.0 27 27
+ 4.98 0 2 cbr 1000 ------- 1 0.0 3.0 28 28
- 4.98 0 2 cbr 1000 ------- 1 0.0 3.0 28 28
r 4.9908 0 2 cbr 1000 ------- 1 0.0 3.0 28 28
+ 4.9908 2 3 cbr 1000 ------- 1 0.0 3.0 28 28
- 4.9908 2 3 cbr 1000 ------- 1 0.0 3.0 28 28
r 5.0148 2 3 cbr 1000 ------- 1 0.0 3.0 28 28
+ 5.14 0 2 cbr 1000 ------- 1 0.0 3.0 29 29
- 5.14 0 2 cbr 1000 ------- 1 0.0 3.0 29 29
r 5.1508 0 2 cbr 1000 ------- 1 0.0 3.0 29 29
+ 5.1508 2 3 cbr 1000 ------- 1 0.0 3.0 29 29
- 5.1508 2 3 cbr 1000 ------- 1 0.0 3.0 29 29
r 5.1748 2 3 cbr 1000 ------- 1 0.0 3.0 29 29
+ 5.3 0 2 cbr 1000 ------- 1 0.0 3.0 30 30
- 5.3 0 2 cbr 1000 ------- 1 0.0 3.0 30 30
r 5.3108 0 2 cbr 1000 ------- 1 0.0 3.0 30 30
+ 5.3108 2 3 cbr 1000 ------- 1 0.0 3.0 30 30
- 5.3108 2 3 cbr 1000 ------- 1 0.0 3.0 30 30
r 5.3348 2 3 cbr 1000 ------- 1 0.0 3.0 30 30
+ 5.46 0 2 cbr 1000 ------- 1 0.0 3.0 31 31
- 5.46 0 2 cbr 1000 ------- 1 0.0 3.0 31 31
r 5.4708 0 2 cbr 1000 ------- 1 0.0 3.0 31 31
+ 5.4708 2 3 cbr 1000 ------- 1 0.0 3.0 31 31
- 5.4708 2 3 cbr 1000 ------- 1 0.0 3.0 31 31
r 5.4948 2 3 cbr 1000 ------- 1 0.0 3.0 31 31
+ 5.62 0 2 cbr 1000 ------- 1 0.0 3.0 32 32
- 5.62 0 2 cbr 1000 ------- 1 0.0 3.0 32 32
r 5.6308 0 2 cbr 1000 ------- 1 0.0 3.0 32 32
+ 5.6308 2 3 cbr 1000 ------- 1 0.0 3.0 32 32
- 5.6308 2 3 cbr 1000 ------- 1 0.0 3.0 32 32
r 5.6548 2 3 cbr 1000 ------- 1 0.0 3.0 32 32
+ 5.78 0 2 cbr 1000 ------- 1 0.0 3.0 33 33
- 5.78 0 2 cbr 1000 ------- 1 0.0 3.0 33 33
r 5.7908 0 2 cbr 1000 ------- 1 0.0 3.0 33 33
+ 5.7908 2 3 cbr 1000 ------- 1 0.0 3.0 33 33
- 5.7908 2 3 cbr 1000 ------- 1 0.0 3.0 33 33
r 5.8148 2 3 cbr 1000 ------- 1 0.0 3.0 33 33
+ 5.94 0 2 cbr 1000 ------- 1 0.0 3.0 34 34
- 5.94 0 2 cbr 1000 ------- 1 0.0 3.0 34 34
r 5.9508 0 2 cbr 1000 ------- 1 0.0 3.0 34 34
+ 5.9508 2 3 cbr 1000 ------- 1 0.0 3.0 34 34
- 5.9508 2 3 cbr 1000 ------- 1 0.0 3.0 34 34
r 5.9748 2 3 cbr 1000 ------- 1 0.0 3.0 34 34
+ 6.1 0 2 cbr 1000 ------- 1 0.0 3.0 35 35
- 6.1 0 2 cbr 1000 ------- 1 0.0 3.0 35 35
r 6.1108 0 2 cbr 1000 ------- 1 0.0 3.0 35 35
+ 6.1108 2 3 cbr 1000 ------- 1 0.0 3.0 35 35
- 6.1108 2 3 cbr 1000 ------- 1 0.0 3.0 35 35
r 6.1348 2 3 cbr 1000 ------- 1 0.0 3.0 35 35
+ 6.26 0 2 cbr 1000 ------- 1 0.0 3.0 36 36
- 6.26 0 2 cbr 1000 ------- 1 0.0 3.0 36 36
r 6.2708 0 2 cbr 1000 ------- 1 0.0 3.0 36 36
+ 6.2708 2 3 cbr 1000 ------- 1 0.0 3.0 36 36
- 6.2708 2 3 cbr 1000 ------- 1 0.0 3.0 36 36
r 6.2948 2 3 cbr 1000 ------- 1 0.0 3.0 36 36
+ 6.42 0 2 cbr 1000 ------- 1 0.0 3.0 37 37
- 6.42 0 2 cbr 1000 ------- 1 0.0 3.0 37 37
r 6.4308 0 2 cbr 1000 ------- 1 0.0 3.0 37 37
+ 6.4308 2 3 cbr 1000 ------- 1 0.0 3.0 37 37
- 6.4308 2 3 cbr 1000 ------- 1 0.0 3.0 37 37
r 6.4548 2 3 cbr 1000 ------- 1 0.0 3.0 37 37
+ 6.58 0 2 cbr 1000 ------- 1 0.0 3.0 38 38
- 6.58 0 2 cbr 1000 ------- 1 0.0 3.0 38 38
r 6.5908 0 2 cbr 1000 ------- 1 0.0 3.0 38 38
+ 6.5908 2 3 cbr 1000 ------- 1 0.0 3.0 38 38
- 6.5908 2 3 cbr 1000 ------- 1 0.0 3.0 38 38
r 6.6148 2 3 cbr 1000 ------- 1 0.0 3.0 38 38
+ 6.74 0 2 cbr 1000 ------- 1 0.0 3.0 39 39
- 6.74 0 2 cbr 1000 ------- 1 0.0 3.0 39 39
r 6.7508 0 2 cbr 1000 ------- 1 0.0 3.0 39 39
+ 6.7508 2 3 cbr 1000 ------- 1 0.0 3.0 39 39
- 6.7508 2 3 cbr 1000 ------- 1 0.0 3.0 39 39
r 6.7748 2 3 cbr 1000 ------- 1 0.0 3.0 39 39
+ 6.9 0 2 cbr 1000 ------- 1 0.0 3.0 40 40
- 6.9 0 2 cbr 1000 ------- 1 0.0 3.0 40 40
r 6.9108 0 2 cbr 1000 ------- 1 0.0 3.0 40 40
+ 6.9108 2 3 cbr 1000 ------- 1 0.0 3.0 40 40
- 6.9108 2 3 cbr 1000 ------- 1 0.0 3.0 40 40
r 6.9348 2 3 cbr 1000 ------- 1 0.0 3.0 40 40
+ 7.06 0 2 cbr 1000 ------- 1 0.0 3.0 41 41
- 7.06 0 2 cbr 1000 ------- 1 0.0 3.0 41 41
r 7.0708 0 2 cbr 1000 ------- 1 0.0 3.0 41 41
+ 7.0708 2 3 cbr 1000 ------- 1 0.0 3.0 41 41
- 7.0708 2 3 cbr 1000 ------- 1 0.0 3.0 41 41
r 7.0948 2 3 cbr 1000 ------- 1 0.0 3.0 41 41
+ 7.22 0 2 cbr 1000 ------- 1 0.0 3.0 42 42
- 7.22 0 2 cbr 1000 ------- 1 0.0 3.0 42 42
r 7.2308 0 2 cbr 1000 ------- 1 0.0 3.0 42 42
+ 7.2308 2 3 cbr 1000 ------- 1 0.0 3.0 42 42
- 7.2308 2 3 cbr 1000 ------- 1 0.0 3.0 42 42
r 7.2548 2 3 cbr 1000 ------- 1 0.0 3.0 42 42
+ 7.38 0 2 cbr 1000 ------- 1 0.0 3.0 43 43
- 7.38 0 2 cbr 1000 ------- 1 0.0 3.0 43 43
r 7.3908 0 2 cbr 1000 ------- 1 0.0 3.0 43 43
+ 7.3908 2 3 cbr 1000 ------- 1 0.0 3.0 43 43
- 7.3908 2 3 cbr 1000 ------- 1 0.0 3.0 43 43
r 7.4148 2 3 cbr 1000 ------- 1 0.0 3.0 43 43
+ 7.54 0 2 cbr 1000 ------- 1 0.0 3.0 44 44
- 7.54 0 2 cbr 1000 ------- 1 0.0 3.0 44 44
r 7.5508 0 2 cbr 1000 ------- 1 0.0 3.0 44 44
+ 7.5508 2 3 cbr 1000 ------- 1 0.0 3.0 44 44
- 7.5508 2 3 cbr 1000 ------- 1 0.0 3.0 44 44
r 7.5748 2 3 cbr 1000 ------- 1 0.0 3.0 44 44
+ 7.7 0 2 cbr 1000 ------- 1 0.0 3.0 45 45
- 7.7 0 2 cbr 1000 ------- 1 0.0 3.0 45 45
r 7.7108 0 2 cbr 1000 ------- 1 0.0 3.0 45 45
+ 7.7108 2 3 cbr 1000 ------- 1 0.0 3.0 45 45
- 7.7108 2 3 cbr 1000 ------- 1 0.0 3.0 45 45
r 7.7348 2 3 cbr 1000 ------- 1 0.0 3.0 45 45
+ 7.86 0 2 cbr 1000 ------- 1 0.0 3.0 46 46
- 7.86 0 2 cbr 1000 ------- 1 0.0 3.0 46 46
r 7.8708 0 2 cbr 1000 ------- 1 0.0 3.0 46 46
+ 7.8708 2 3 cbr 1000 ------- 1 0.0 3.0 46 46
- 7.8708 2 3 cbr 1000 ------- 1 0.0 3.0 46 46
r 7.8948 2 3 cbr 1000 ------- 1 0.0 3.0 46 46
+ 8.02 0 2 cbr 1000 ------- 1 0.0 3.0 47 47
- 8.02 0 2 cbr 1000 ------- 1 0.0 3.0 47 47
r 8.0308 0 2 cbr 1000 ------- 1 0.0 3.0 47 47
+ 8.0308 2 3 cbr 1000 ------- 1 0.0 3.0 47 47
- 8.0308 2 3 cbr 1000 ------- 1 0.0 3.0 47 47
r 8.0548 2 3 cbr 1000 ------- 1 0.0 3.0 47 47
+ 8.18 0 2 cbr 1000 ------- 1 0.0 3.0 48 48
- 8.18 0 2 cbr 1000 ------- 1 0.0 3.0 48 48
r 8.1908 0 2 cbr 1000 ------- 1 0.0 3.0 48 48
+ 8.1908 2 3 cbr 1000 ------- 1 0.0 3.0 48 48
- 8.1908 2 3 cbr 1000 ------- 1 0.0 3.0 48 48
r 8.2148 2 3 cbr 1000 ------- 1 0.0 3.0 48 48
+ 8.34 0 2 cbr 1000 ------- 1 0.0 3.0 49 49
- 8.34 0 2 cbr 1000 ------- 1 0.0 3.0 49 49
r 8.3508 0 2 cbr 1000 ------- 1 0.0 3.0 49 49
+ 8.3508 2 3 cbr 1000 ------- 1 0.0 3.0 49 49
- 8.3508 2 3 cbr 1000 ------- 1 0.0 3.0 49 49
r 8.3748 2 3 cbr 1000 ------- 1 0.0 3.0 49 49
+ 8.5 0 2 cbr 1000 ------- 1 0.0 3.0 50 50
- 8.5 0 2 cbr 1000 ------- 1 0.0 3.0 50 50
r 8.5108 0 2 cbr 1000 ------- 1 0.0 3.0 50 50
+ 8.5108 2 3 cbr 1000 ------- 1 0.0 3.0 50 50
- 8.5108 2 3 cbr 1000 ------- 1 0.0 3.0 50 50
r 8.5348 2 3 cbr 1000 ------- 1 0.0 3.0 50 50
+ 8.66 0 2 cbr 1000 ------- 1 0.0 3.0 51 51
- 8.66 0 2 cbr 1000 ------- 1 0.0 3.0 51 51
r 8.6708 0 2 cbr 1000 ------- 1 0.0 3.0 51 51
+ 8.6708 2 3 cbr 1000 ------- 1 0.0 3.0 51 51
- 8.6708 2 3 cbr 1000 ------- 1 0.0 3.0 51 51
r 8.6948 2 3 cbr 1000 ------- 1 0.0 3.0 51 51
+ 8.82 0 2 cbr 1000 ------- 1 0.0 3.0 52 52
- 8.82 0 2 cbr 1000 ------- 1 0.0 3.0 52 52
r 8.8308 0 2 cbr 1000 ------- 1 0.0 3.0 52 52
+ 8.8308 2 3 cbr 1000 ------- 1 0.0 3.0 52 52
- 8.8308 2 3 cbr 1000 ------- 1 0.0 3.0 52 52
r 8.8548 2 3 cbr 1000 ------- 1 0.0 3.0 52 52
+ 8.98 0 2 cbr 1000 ------- 1 0.0 3.0 53 53
- 8.98 0 2 cbr 1000 ------- 1 0.0 3.0 53 53
r 8.9908 0 2 cbr 1000 ------- 1 0.0 3.0 53 53
+ 8.9908 2 3 cbr 1000 ------- 1 0.0 3.0 53 53
- 8.9908 2 3 cbr 1000 ------- 1 0.0 3.0 53 53
r 9.0148 2 3 cbr 1000 ------- 1 0.0 3.0 53 53
+ 9.14 0 2 cbr 1000 ------- 1 0.0 3.0 54 54
- 9.14 0 2 cbr 1000 ------- 1 0.0 3.0 54 54
r 9.1508 0 2 cbr 1000 ------- 1 0.0 3.0 54 54
+ 9.1508 2 3 cbr 1000 ------- 1 0.0 3.0 54 54
- 9.1508 2 3 cbr 1000 ------- 1 0.0 3.0 54 54
r 9.1748 2 3 cbr 1000 ------- 1 0.0 3.0 54 54
+ 9.3 0 2 cbr 1000 ------- 1 0.0 3.0 55 55
- 9.3 0 2 cbr 1000 ------- 1 0.0 3.0 55 55
r 9.3108 0 2 cbr 1000 ------- 1 0.0 3.0 55 55
+ 9.3108 2 3 cbr 1000 ------- 1 0.0 3.0 55 55
- 9.3108 2 3 cbr 1000 ------- 1 0.0 3.0 55 55
r 9.3348 2 3 cbr 1000 ------- 1 0.0 3.0 55 55
+ 9.46 0 2 cbr 1000 ------- 1 0.0 3.0 56 56
- 9.46 0 2 cbr 1000 ------- 1 0.0 3.0 56 56
r 9.4708 0 2 cbr 1000 ------- 1 0.0 3.0 56 56
+ 9.4708 2 3 cbr 1000 ------- 1 0.0 3.0 56 56
- 9.4708 2 3 cbr 1000 ------- 1 0.0 3.0 56 56
r 9.4948 2 3 cbr 1000 ------- 1 0.0 3.0 56 56
+ 9.62 0 2 cbr 1000 ------- 1 0.0 3.0 57 57
- 9.62 0 2 cbr 1000 ------- 1 0.0 3.0 57 57
r 9.6308 0 2 cbr 1000 ------- 1 0.0 3.0 57 57
+ 9.6308 2 3 cbr 1000 ------- 1 0.0 3.0 57 57
- 9.6308 2 3 cbr 1000 ------- 1 0.0 3.0 57 57
r 9.6548 2 3 cbr 1000 ------- 1 0.0 3.0 57 57
+ 9.78 0 2 cbr 1000 ------- 1 0.0 3.0 58 58
- 9.78 0 2 cbr 1000 ------- 1 0.0 3.0 58 58
r 9.7908 0 2 cbr 1000 ------- 1 0.0 3.0 58 58
+ 9.7908 2 3 cbr 1000 ------- 1 0.0 3.0 58 58
- 9.7908 2 3 cbr 1000 ------- 1 0.0 3.0 58 58
r 9.8148 2 3 cbr 1000 ------- 1 0.0 3.0 58 58
+ 9.94 0 2 cbr 1000 ------- 1 0.0 3.0 59 59
- 9.94 0 2 cbr 1000 ------- 1 0.0 3.0 59 59
r 9.9508 0 2 cbr 1000 ------- 1 0.0 3.0 59 59
+ 9.9508 2 3 cbr 1000 ------- 1 0.0 3.0 59 59
- 9.9508 2 3 cbr 1000 ------- 1 0.0 3.0 59 59
r 9.9748 2 3 cbr 1000 ------- 1 0.0 3.0 59 59
+ 10.1 0 2 cbr 1000 ------- 1 0.0 3.0 60 60
- 10.1 0 2 cbr 1000 ------- 1 0.0 3.0 60 60
r 10.1108 0 2 cbr 1000 ------- 1 0.0 3.0 60 60
+ 10.1108 2 3 cbr 1000 ------- 1 0.0 3.0 60 60
- 10.1108 2 3 cbr 1000 ------- 1 0.0 3.0 60 60
r 10.1348 2 3 cbr 1000 ------- 1 0.0 3.0 60 60
+ 10.26 0 2 cbr 1000 ------- 1 0.0 3.0 61 61
- 10.26 0 2 cbr 1000 ------- 1 0.0 3.0 61 61
r 10.2708 0 2 cbr 1000 ------- 1 0.0 3.0 61 61
+ 10.2708 2 3 cbr 1000 ------- 1 0.0 3.0 61 61
- 10.2708 2 3 cbr 1000 ------- 1 0.0 3.0 61 61
r 10.2948 2 3 cbr 1000 ------- 1 0.0 3.0 61 61
+ 10.42 0 2 cbr 1000 ------- 1 0.0 3.0 62 62
- 10.42 0 2 cbr 1000 ------- 1 0.0 3.0 62 62
r 10.4308 0 2 cbr 1000 ------- 1 0.0 3.0 62 62
+ 10.4308 2 3 cbr 1000 ------- 1 0.0 3.0 62 62
- 10.4308 2 3 cbr 1000 ------- 1 0.0 3.0 62 62
r 10.4548 2 3 cbr 1000 ------- 1 0.0 3.0 62 62
+ 10.58 0 2 cbr 1000 ------- 1 0.0 3.0 63 63
- 10.58 0 2 cbr 1000 ------- 1 0.0 3.0 63 63
r 10.5908 0 2 cbr 1000 ------- 1 0.0 3.0 63 63
+ 10.5908 2 3 cbr 1000 ------- 1 0.0 3.0 63 63
- 10.5908 2 3 cbr 1000 ------- 1 0.0 3.0 63 63
r 10.6148 2 3 cbr 1000 ------- 1 0.0 3.0 63 63
+ 10.74 0 2 cbr 1000 ------- 1 0.0 3.0 64 64
- 10.74 0 2 cbr 1000 ------- 1 0.0 3.0 64 64
r 10.7508 0 2 cbr 1000 ------- 1 0.0 3.0 64 64
+ 10.7508 2 3 cbr 1000 ------- 1 0.0 3.0 64 64
- 10.7508 2 3 cbr 1000 ------- 1 0.0 3.0 64 64
r 10.7748 2 3 cbr 1000 ------- 1 0.0 3.0 64 64
+ 10.9 0 2 cbr 1000 ------- 1 0.0 3.0 65 65
- 10.9 0 2 cbr 1000 ------- 1 0.0 3.0 65 65
r 10.9108 0 2 cbr 1000 ------- 1 0.0 3.0 65 65
+ 10.9108 2 3 cbr 1000 ------- 1 0.0 3.0 65 65
- 10.9108 2 3 cbr 1000 ------- 1 0.0 3.0 65 65
r 10.9348 2 3 cbr 1000 ------- 1 0.0 3.0 65 65
+ 11.06 0 2 cbr 1000 ------- 1 0.0 3.0 66 66
- 11.06 0 2 cbr 1000 ------- 1 0.0 3.0 66 66
r 11.0708 0 2 cbr 1000 ------- 1 0.0 3.0 66 66
+ 11.0708 2 3 cbr 1000 ------- 1 0.0 3.0 66 66
- 11.0708 2 3 cbr 1000 ------- 1 0.0 3.0 66 66
r 11.0948 2 3 cbr 1000 ------- 1 0.0 3.0 66 66
+ 11.22 0 2 cbr 1000 ------- 1 0.0 3.0 67 67
- 11.22 0 2 cbr 1000 ------- 1 0.0 3.0 67 67
r 11.2308 0 2 cbr 1000 ------- 1 0.0 3.0 67 67
+ 11.2308 2 3 cbr 1000 ------- 1 0.0 3.0 67 67
- 11.2308 2 3 cbr 1000 ------- 1 0.0 3.0 67 67
r 11.2548 2 3 cbr 1000 ------- 1 0.0 3.0 67 67
+ 11.38 0 2 cbr 1000 ------- 1 0.0 3.0 68 68
- 11.38 0 2 cbr 1000 ------- 1 0.0 3.0 68 68
r 11.3908 0 2 cbr 1000 ------- 1 0.0 3.0 68 68
+ 11.3908 2 3 cbr 1000 ------- 1 0.0 3.0 68 68
- 11.3908 2 3 cbr 1000 ------- 1 0.0 3.0 68 68
r 11.4148 2 3 cbr 1000 ------- 1 0.0 3.0 68 68
+ 11.54 0 2 cbr 1000 ------- 1 0.0 3.0 69 69
- 11.54 0 2 cbr 1000 ------- 1 0.0 3.0 69 69
r 11.5508 0 2 cbr 1000 ------- 1 0.0 3.0 69 69
+ 11.5508 2 3 cbr 1000 ------- 1 0.0 3.0 69 69
- 11.5508 2 3 cbr 1000 ------- 1 0.0 3.0 69 69
r 11.5748 2 3 cbr 1000 ------- 1 0.0 3.0 69 69
+ 11.7 0 2 cbr 1000 ------- 1 0.0 3.0 70 70
- 11.7 0 2 cbr 1000 ------- 1 0.0 3.0 70 70
r 11.7108 0 2 cbr 1000 ------- 1 0.0 3.0 70 70
+ 11.7108 2 3 cbr 1000 ------- 1 0.0 3.0 70 70
- 11.7108 2 3 cbr 1000 ------- 1 0.0 3.0 70 70
r 11.7348 2 3 cbr 1000 ------- 1 0.0 3.0 70 70
+ 11.86 0 2 cbr 1000 ------- 1 0.0 3.0 71 71
- 11.86 0 2 cbr 1000 ------- 1 0.0 3.0 71 71
r 11.8708 0 2 cbr 1000 ------- 1 0.0 3.0 71 71
+ 11.8708 2 3 cbr 1000 ------- 1 0.0 3.0 71 71
- 11.8708 2 3 cbr 1000 ------- 1 0.0 3.0 71 71
r 11.8948 2 3 cbr 1000 ------- 1 0.0 3.0 71 71
+ 12.02 0 2 cbr 1000 ------- 1 0.0 3.0 72 72
- 12.02 0 2 cbr 1000 ------- 1 0.0 3.0 72 72
r 12.0308 0 2 cbr 1000 ------- 1 0.0 3.0 72 72
+ 12.0308 2 3 cbr 1000 ------- 1 0.0 3.0 72 72
- 12.0308 2 3 cbr 1000 ------- 1 0.0 3.0 72 72
r 12.0548 2 3 cbr 1000 ------- 1 0.0 3.0 72 72
+ 12.18 0 2 cbr 1000 ------- 1 0.0 3.0 73 73
- 12.18 0 2 cbr 1000 ------- 1 0.0 3.0 73 73
r 12.1908 0 2 cbr 1000 ------- 1 0.0 3.0 73 73
+ 12.1908 2 3 cbr 1000 ------- 1 0.0 3.0 73 73
- 12.1908 2 3 cbr 1000 ------- 1 0.0 3.0 73 73
r 12.2148 2 3 cbr 1000 ------- 1 0.0 3.0 73 73
+ 12.34 0 2 cbr 1000 ------- 1 0.0 3.0 74 74
- 12.34 0 2 cbr 1000 ------- 1 0.0 3.0 74 74
r 12.3508 0 2 cbr 1000 ------- 1 0.0 3.0 74 74
+ 12.3508 2 3 cbr 1000 ------- 1 0.0 3.0 74 74
- 12.3508 2 3 cbr 1000 ------- 1 0.0 3.0 74 74
r 12.3748 2 3 cbr 1000 ------- 1 0.0 3.0 74 74
+ 12.5 0 2 cbr 1000 ------- 1 0.0 3.0 75 75
- 12.5 0 2 cbr 1000 ------- 1 0.0 3.0 75 75
r 12.5108 0 2 cbr 1000 ------- 1 0.0 3.0 75 75
+ 12.5108 2 3 cbr 1000 ------- 1 0.0 3.0 75 75
- 12.5108 2 3 cbr 1000 ------- 1 0.0 3.0 75 75
r 12.5348 2 3 cbr 1000 ------- 1 0.0 3.0 75 75
+ 12.66 0 2 cbr 1000 ------- 1 0.0 3.0 76 76
- 12.66 0 2 cbr 1000 ------- 1 0.0 3.0 76 76
r 12.6708 0 2 cbr 1000 ------- 1 0.0 3.0 76 76
+ 12.6708 2 3 cbr 1000 ------- 1 0.0 3.0 76 76
- 12.6708 2 3 cbr 1000 ------- 1 0.0 3.0 76 76
r 12.6948 2 3 cbr 1000 ------- 1 0.0 3.0 76 76
+ 12.82 0 2 cbr 1000 ------- 1 0.0 3.0 77 77
- 12.82 0 2 cbr 1000 ------- 1 0.0 3.0 77 77
r 12.8308 0 2 cbr 1000 ------- 1 0.0 3.0 77 77
+ 12.8308 2 3 cbr 1000 ------- 1 0.0 3.0 77 77
- 12.8308 2 3 cbr 1000 ------- 1 0.0 3.0 77 77
r 12.8548 2 3 cbr 1000 ------- 1 0.0 3.0 77 77
+ 12.98 0 2 cbr 1000 ------- 1 0.0 3.0 78 78
- 12.98 0 2 cbr 1000 ------- 1 0.0 3.0 78 78
r 12.9908 0 2 cbr 1000 ------- 1 0.0 3.0 78 78
+ 12.9908 2 3 cbr 1000 ------- 1 0.0 3.0 78 78
- 12.9908 2 3 cbr 1000 ------- 1 0.0 3.0 78 78
r 13.0148 2 3 cbr 1000 ------- 1 0.0 3.0 78 78
+ 13.14 0 2 cbr 1000 ------- 1 0.0 3.0 79 79
- 13.14 0 2 cbr 1000 ------- 1 0.0 3.0 79 79
r 13.1508 0 2 cbr 1000 ------- 1 0.0 3.0 79 79
+ 13.1508 2 3 cbr 1000 ------- 1 0.0 3.0 79 79
- 13.1508 2 3 cbr 1000 ------- 1 0.0 3.0 79 79
r 13.1748 2 3 cbr 1000 ------- 1 0.0 3.0 79 79
+ 13.3 0 2 cbr 1000 ------- 1 0.0 3.0 80 80
- 13.3 0 2 cbr 1000 ------- 1 0.0 3.0 80 80
r 13.3108 0 2 cbr 1000 ------- 1 0.0 3.0 80 80
+ 13.3108 2 3 cbr 1000 ------- 1 0.0 3.0 80 80
- 13.3108 2 3 cbr 1000 ------- 1 0.0 3.0 80 80
r 13.3348 2 3 cbr 1000 ------- 1 0.0 3.0 80 80
+ 13.46 0 2 cbr 1000 ------- 1 0.0 3.0 81 81
- 13.46 0 2 cbr 1000 ------- 1 0.0 3.0 81 81
r 13.4708 0 2 cbr 1000 ------- 1 0.0 3.0 81 81
+ 13.4708 2 3 cbr 1000 ------- 1 0.0 3.0 81 81
- 13.4708 2 3 cbr 1000 ------- 1 0.0 3.0 81 81
r 13.4948 2 3 cbr 1000 ------- 1 0.0 3.0 81 81
+ 13.62 0 2 cbr 1000 ------- 1 0.0 3.0 82 82
- 13.62 0 2 cbr 1000 ------- 1 0.0 3.0 82 82
r 13.6308 0 2 cbr 1000 ------- 1 0.0 3.0 82 82
+ 13.6308 2 3 cbr 1000 ------- 1 0.0 3.0 82 82
- 13.6308 2 3 cbr 1000 ------- 1 0.0 3.0 82 82
r 13.6548 2 3 cbr 1000 ------- 1 0.0 3.0 82 82
+ 13.78 0 2 cbr 1000 ------- 1 0.0 3.0 83 83
- 13.78 0 2 cbr 1000 ------- 1 0.0 3.0 83 83
r 13.7908 0 2 cbr 1000 ------- 1 0.0 3.0 83 83
+ 13.7908 2 3 cbr 1000 ------- 1 0.0 3.0 83 83
- 13.7908 2 3 cbr 1000 ------- 1 0.0 3.0 83 83
r 13.8148 2 3 cbr 1000 ------- 1 0.0 3.0 83 83
+ 13.94 0 2 cbr 1000 ------- 1 0.0 3.0 84 84
- 13.94 0 2 cbr 1000 ------- 1 0.0 3.0 84 84
r 13.9508 0 2 cbr 1000 ------- 1 0.0 3.0 84 84
+ 13.9508 2 3 cbr 1000 ------- 1 0.0 3.0 84 84
- 13.9508 2 3 cbr 1000 ------- 1 0.0 3.0 84 84
r 13.9748 2 3 cbr 1000 ------- 1 0.0 3.0 84 84
+ 14.1 0 2 cbr 1000 ------- 1 0.0 3.0 85 85
- 14.1 0 2 cbr 1000 ------- 1 0.0 3.0 85 85
r 14.1108 0 2 cbr 1000 ------- 1 0.0 3.0 85 85
+ 14.1108 2 3 cbr 1000 ------- 1 0.0 3.0 85 85
- 14.1108 2 3 cbr 1000 ------- 1 0.0 3.0 85 85
r 14.1348 2 3 cbr 1000 ------- 1 0.0 3.0 85 85
+ 14.26 0 2 cbr 1000 ------- 1 0.0 3.0 86 86
- 14.26 0 2 cbr 1000 ------- 1 0.0 3.0 86 86
r 14.2708 0 2 cbr 1000 ------- 1 0.0 3.0 86 86
+ 14.2708 2 3 cbr 1000 ------- 1 0.0 3.0 86 86
- 14.2708 2 3 cbr 1000 ------- 1 0.0 3.0 86 86
r 14.2948 2 3 cbr 1000 ------- 1 0.0 3.0 86 86
+ 14.42 0 2 cbr 1000 ------- 1 0.0 3.0 87 87
- 14.42 0 2 cbr 1000 ------- 1 0.0 3.0 87 87
r 14.4308 0 2 cbr 1000 ------- 1 0.0 3.0 87 87
+ 14.4308 2 3 cbr 1000 ------- 1 0.0 3.0 87 87
- 14.4308 2 3 cbr 1000 ------- 1 0.0 3.0 87 87
r 14.4548 2 3 cbr 1000 ------- 1 0.0 3.0 87 87
+ 14.58 0 2 cbr 1000 ------- 1 0.0 3.0 88 88
- 14.58 0 2 cbr 1000 ------- 1 0.0 3.0 88 88
r 14.5908 0 2 cbr 1000 ------- 1 0.0 3.0 88 88
+ 14.5908 2 3 cbr 1000 ------- 1 0.0 3.0 88 88
- 14.5908 2 3 cbr 1000 ------- 1 0.0 3.0 88 88
r 14.6148 2 3 cbr 1000 ------- 1 0.0 3.0 88 88
+ 14.74 0 2 cbr 1000 ------- 1 0.0 3.0 89 89
- 14.74 0 2 cbr 1000 ------- 1 0.0 3.0 89 89
r 14.7508 0 2 cbr 1000 ------- 1 0.0 3.0 89 89
+ 14.7508 2 3 cbr 1000 ------- 1 0.0 3.0 89 89
- 14.7508 2 3 cbr 1000 ------- 1 0.0 3.0 89 89
r 14.7748 2 3 cbr 1000 ------- 1 0.0 3.0 89 89
+ 14.9 0 2 cbr 1000 ------- 1 0.0 3.0 90 90
- 14.9 0 2 cbr 1000 ------- 1 0.0 3.0 90 90
r 14.9108 0 2 cbr 1000 ------- 1 0.0 3.0 90 90
+ 14.9108 2 3 cbr 1000 ------- 1 0.0 3.0 90 90
- 14.9108 2 3 cbr 1000 ------- 1 0.0 3.0 90 90
r 14.9348 2 3 cbr 1000 ------- 1 0.0 3.0 90 90
+ 15.06 0 2 cbr 1000 ------- 1 0.0 3.0 91 91
- 15.06 0 2 cbr 1000 ------- 1 0.0 3.0 91 91
r 15.0708 0 2 cbr 1000 ------- 1 0.0 3.0 91 91
+ 15.0708 2 3 cbr 1000 ------- 1 0.0 3.0 91 91
- 15.0708 2 3 cbr 1000 ------- 1 0.0 3.0 91 91
r 15.0948 2 3 cbr 1000 ------- 1 0.0 3.0 91 91
+ 15.22 0 2 cbr 1000 ------- 1 0.0 3.0 92 92
- 15.22 0 2 cbr 1000 ------- 1 0.0 3.0 92 92
r 15.2308 0 2 cbr 1000 ------- 1 0.0 3.0 92 92
+ 15.2308 2 3 cbr 1000 ------- 1 0.0 3.0 92 92
- 15.2308 2 3 cbr 1000 ------- 1 0.0 3.0 92 92
r 15.2548 2 3 cbr 1000 ------- 1 0.0 3.0 92 92
+ 15.38 0 2 cbr 1000 ------- 1 0.0 3.0 93 93
- 15.38 0 2 cbr 1000 ------- 1 0.0 3.0 93 93
r 15.3908 0 2 cbr 1000 ------- 1 0.0 3.0 93 93
+ 15.3908 2 3 cbr 1000 ------- 1 0.0 3.0 93 93
- 15.3908 2 3 cbr 1000 ------- 1 0.0 3.0 93 93
r 15.4148 2 3 cbr 1000 ------- 1 0.0 3.0 93 93
+ 15.54 0 2 cbr 1000 ------- 1 0.0 3.0 94 94
- 15.54 0 2 cbr 1000 ------- 1 0.0 3.0 94 94
r 15.5508 0 2 cbr 1000 ------- 1 0.0 3.0 94 94
+ 15.5508 2 3 cbr 1000 ------- 1 0.0 3.0 94 94
- 15.5508 2 3 cbr 1000 ------- 1 0.0 3.0 94 94
r 15.5748 2 3 cbr 1000 ------- 1 0.0 3.0 94 94
+ 15.7 0 2 cbr 1000 ------- 1 0.0 3.0 95 95
- 15.7 0 2 cbr 1000 ------- 1 0.0 3.0 95 95
r 15.7108 0 2 cbr 1000 ------- 1 0.0 3.0 95 95
+ 15.7108 2 3 cbr 1000 ------- 1 0.0 3.0 95 95
- 15.7108 2 3 cbr 1000 ------- 1 0.0 3.0 95 95
r 15.7348 2 3 cbr 1000 ------- 1 0.0 3.0 95 95
+ 15.86 0 2 cbr 1000 ------- 1 0.0 3.0 96 96
- 15.86 0 2 cbr 1000 ------- 1 0.0 3.0 96 96
r 15.8708 0 2 cbr 1000 ------- 1 0.0 3.0 96 96
+ 15.8708 2 3 cbr 1000 ------- 1 0.0 3.0 96 96
- 15.8708 2 3 cbr 1000 ------- 1 0.0 3.0 96 96
r 15.8948 2 3 cbr 1000 ------- 1 0.0 3.0 96 96
+ 16.02 0 2 cbr 1000 ------- 1 0.0 3.0 97 97
- 16.02 0 2 cbr 1000 ------- 1 0.0 3.0 97 97
r 16.0308 0 2 cbr 1000 ------- 1 0.0 3.0 97 97
+ 16.0308 2 3 cbr 1000 ------- 1 0.0 3.0 97 97
- 16.0308 2 3 cbr 1000 ------- 1 0.0 3.0 97 97
r 16.0548 2 3 cbr 1000 ------- 1 0.0 3.0 97 97
+ 16.18 0 2 cbr 1000 ------- 1 0.0 3.0 98 98
- 16.18 0 2 cbr 1000 ------- 1 0.0 3.0 98 98
r 16.1908 0 2 cbr 1000 ------- 1 0.0 3.0 98 98
+ 16.1908 2 3 cbr 1000 ------- 1 0.0 3.0 98 98
- 16.1908 2 3 cbr 1000 ------- 1 0.0 3.0 98 98
r 16.2148 2 3 cbr 1000 ------- 1 0.0 3.0 98 98
+ 16.34 0 2 cbr 1000 ------- 1 0.0 3.0 99 99
- 16.34 0 2 cbr 1000 ------- 1 0.0 3.0 99 99
r 16.3508 0 2 cbr 1000 ------- 1 0.0 3.0 99 99
+ 16.3508 2 3 cbr 1000 ------- 1 0.0 3.0 99 99
- 16.3508 2 3 cbr 1000 ------- 1 0.0 3.0 99 99
r 16.3748 2 3 cbr 1000 ------- 1 0.0 3.0 99 99
+ 16.5 0 2 cbr 1000 ------- 1 0.0 3.0 100 100
- 16.5 0 2 cbr 1000 ------- 1 0.0 3.0 100 100
r 16.5108 0 2 cbr 1000 ------- 1 0.0 3.0 100 100
+ 16.5108 2 3 cbr 1000 ------- 1 0.0 3.0 100 100
- 16.5108 2 3 cbr 1000 ------- 1 0.0 3.0 100 100
r 16.5348 2 3 cbr 1000 ------- 1 0.0 3.0 100 100
+ 16.66 0 2 cbr 1000 ------- 1 0.0 3.0 101 101
- 16.66 0 2 cbr 1000 ------- 1 0.0 3.0 101 101
r 16.6708 0 2 cbr 1000 ------- 1 0.0 3.0 101 101
+ 16.6708 2 3 cbr 1000 ------- 1 0.0 3.0 101 101
- 16.6708 2 3 cbr 1000 ------- 1 0.0 3.0 101 101
r 16.6948 2 3 cbr 1000 ------- 1 0.0 3.0 101 101
+ 16.82 0 2 cbr 1000 ------- 1 0.0 3.0 102 102
- 16.82 0 2 cbr 1000 ------- 1 0.0 3.0 102 102
r 16.8308 0 2 cbr 1000 ------- 1 0.0 3.0 102 102
+ 16.8308 2 3 cbr 1000 ------- 1 0.0 3.0 102 102
- 16.8308 2 3 cbr 1000 ------- 1 0.0 3.0 102 102
r 16.8548 2 3 cbr 1000 ------- 1 0.0 3.0 102 102
+ 16.98 0 2 cbr 1000 ------- 1 0.0 3.0 103 103
- 16.98 0 2 cbr 1000 ------- 1 0.0 3.0 103 103
r 16.9908 0 2 cbr 1000 ------- 1 0.0 3.0 103 103
+ 16.9908 2 3 cbr 1000 ------- 1 0.0 3.0 103 103
- 16.9908 2 3 cbr 1000 ------- 1 0.0 3.0 103 103
r 17.0148 2 3 cbr 1000 ------- 1 0.0 3.0 103 103
+ 17.14 0 2 cbr 1000 ------- 1 0.0 3.0 104 104
- 17.14 0 2 cbr 1000 ------- 1 0.0 3.0 104 104
r 17.1508 0 2 cbr 1000 ------- 1 0.0 3.0 104 104
+ 17.1508 2 3 cbr 1000 ------- 1 0.0 3.0 104 104
- 17.1508 2 3 cbr 1000 ------- 1 0.0 3.0 104 104
r 17.1748 2 3 cbr 1000 ------- 1 0.0 3.0 104 104
+ 17.3 0 2 cbr 1000 ------- 1 0.0 3.0 105 105
- 17.3 0 2 cbr 1000 ------- 1 0.0 3.0 105 105
r 17.3108 0 2 cbr 1000 ------- 1 0.0 3.0 105 105
+ 17.3108 2 3 cbr 1000 ------- 1 0.0 3.0 105 105
- 17.3108 2 3 cbr 1000 ------- 1 0.0 3.0 105 105
r 17.3348 2 3 cbr 1000 ------- 1 0.0 3.0 105 105
+ 17.46 0 2 cbr 1000 ------- 1 0.0 3.0 106 106
- 17.46 0 2 cbr 1000 ------- 1 0.0 3.0 106 106
r 17.4708 0 2 cbr 1000 ------- 1 0.0 3.0 106 106
+ 17.4708 2 3 cbr 1000 ------- 1 0.0 3.0 106 106
- 17.4708 2 3 cbr 1000 ------- 1 0.0 3.0 106 106
r 17.4948 2 3 cbr 1000 ------- 1 0.0 3.0 106 106
+ 17.62 0 2 cbr 1000 ------- 1 0.0 3.0 107 107
- 17.62 0 2 cbr 1000 ------- 1 0.0 3.0 107 107
r 17.6308 0 2 cbr 1000 ------- 1 0.0 3.0 107 107
+ 17.6308 2 3 cbr 1000 ------- 1 0.0 3.0 107 107
- 17.6308 2 3 cbr 1000 ------- 1 0.0 3.0 107 107
r 17.6548 2 3 cbr 1000 ------- 1 0.0 3.0 107 107
+ 17.78 0 2 cbr 1000 ------- 1 0.0 3.0 108 108
- 17.78 0 2 cbr 1000 ------- 1 0.0 3.0 108 108
r 17.7908 0 2 cbr 1000 ------- 1 0.0 3.0 108 108
+ 17.7908 2 3 cbr 1000 ------- 1 0.0 3.0 108 108
- 17.7908 2 3 cbr 1000 ------- 1 0.0 3.0 108 108
r 17.8148 2 3 cbr 1000 ------- 1 0.0 3.0 108 108
+ 17.94 0 2 cbr 1000 ------- 1 0.0 3.0 109 109
- 17.94 0 2 cbr 1000 ------- 1 0.0 3.0 109 109
r 17.9508 0 2 cbr 1000 ------- 1 0.0 3.0 109 109
+ 17.9508 2 3 cbr 1000 ------- 1 0.0 3.0 109 109
- 17.9508 2 3 cbr 1000 ------- 1 0.0 3.0 109 109
r 17.9748 2 3 cbr 1000 ------- 1 0.0 3.0 109 109
+ 18.1 0 2 cbr 1000 ------- 1 0.0 3.0 110 110
- 18.1 0 2 cbr 1000 ------- 1 0.0 3.0 110 110
r 18.1108 0 2 cbr 1000 ------- 1 0.0 3.0 110 110
+ 18.1108 2 3 cbr 1000 ------- 1 0.0 3.0 110 110
- 18.1108 2 3 cbr 1000 ------- 1 0.0 3.0 110 110
r 18.1348 2 3 cbr 1000 ------- 1 0.0 3.0 110 110
+ 18.26 0 2 cbr 1000 ------- 1 0.0 3.0 111 111
- 18.26 0 2 cbr 1000 ------- 1 0.0 3.0 111 111
r 18.2708 0 2 cbr 1000 ------- 1 0.0 3.0 111 111
+ 18.2708 2 3 cbr 1000 ------- 1 0.0 3.0 111 111
- 18.2708 2 3 cbr 1000 ------- 1 0.0 3.0 111 111
r 18.2948 2 3 cbr 1000 ------- 1 0.0 3.0 111 111
+ 18.42 0 2 cbr 1000 ------- 1 0.0 3.0 112 112
- 18.42 0 2 cbr 1000 ------- 1 0.0 3.0 112 112
r 18.4308 0 2 cbr 1000 ------- 1 0.0 3.0 112 112
+ 18.4308 2 3 cbr 1000 ------- 1 0.0 3.0 112 112
- 18.4308 2 3 cbr 1000 ------- 1 0.0 3.0 112 112
r 18.4548 2 3 cbr 1000 ------- 1 0.0 3.0 112 112
+ 18.58 0 2 cbr 1000 ------- 1 0.0 3.0 113 113
- 18.58 0 2 cbr 1000 ------- 1 0.0 3.0 113 113
r 18.5908 0 2 cbr 1000 ------- 1 0.0 3.0 113 113
+ 18.5908 2 3 cbr 1000 ------- 1 0.0 3.0 113 113
- 18.5908 2 3 cbr 1000 ------- 1 0.0 3.0 113 113
r 18.6148 2 3 cbr 1000 ------- 1 0.0 3.0 113 113
+ 18.74 0 2 cbr 1000 ------- 1 0.0 3.0 114 114
- 18.74 0 2 cbr 1000 ------- 1 0.0 3.0 114 114
r 18.7508 0 2 cbr 1000 ------- 1 0.0 3.0 114 114
+ 18.7508 2 3 cbr 1000 ------- 1 0.0 3.0 114 114
- 18.7508 2 3 cbr 1000 ------- 1 0.0 3.0 114 114
r 18.7748 2 3 cbr 1000 ------- 1 0.0 3.0 114 114