V -t * -v 1.0a5 -a 0
A -t * -n 1 -p 0 -o 0x7fffffff -c 30 -a 1
A -t * -h 1 -m 1073741823 -s 0
n -t * -a 17 -s 17 -S UP -v circle -c black -i black
n -t * -a 0 -s 0 -S UP -v circle -c black -i black
n -t * -a 18 -s 18 -S UP -v circle -c black -i black
n -t * -a 1 -s 1 -S UP -v circle -c black -i black
n -t * -a 19 -s 19 -S UP -v circle -c black -i black
n -t * -a 2 -s 2 -S UP -v circle -c black -i black
n -t * -a 3 -s 3 -S UP -v circle -c black -i black
n -t * -a 4 -s 4 -S UP -v circle -c black -i black
n -t * -a 5 -s 5 -S UP -v circle -c black -i black
n -t * -a 6 -s 6 -S UP -v circle -c black -i black
n -t * -a 7 -s 7 -S UP -v circle -c black -i black
n -t * -a 8 -s 8 -S UP -v circle -c black -i black
n -t * -a 9 -s 9 -S UP -v circle -c black -i black
n -t * -a 10 -s 10 -S UP -v circle -c black -i black
n -t * -a 11 -s 11 -S UP -v circle -c black -i black
n -t * -a 12 -s 12 -S UP -v circle -c black -i black
n -t * -a 13 -s 13 -S UP -v circle -c black -i black
n -t * -a 14 -s 14 -S UP -v circle -c black -i black
n -t * -a 15 -s 15 -S UP -v circle -c black -i black
n -t * -a 16 -s 16 -S UP -v circle -c black -i black
l -t * -s 0 -d 2 -S UP -r 10000000 -D 0.01 -c black -o right-down
l -t * -s 1 -d 2 -S UP -r 10000000 -D 0.01 -c black -o right-up
l -t * -s 2 -d 3 -S UP -r 2000000 -D 0.02 -c black -o right
+ -t 0.5 -s 0 -d 2 -p cbr -e 1000 -c 1 -i 0 -a 1 -x {0.0 3.0 0 ------- null}
- -t 0.5 -s 0 -d 2 -p cbr -e 1000 -c 1 -i 0 -a 1 -x {0.0 3.0 0 ------- null}
h -t 0.5 -s 0 -d 2 -p cbr -e 1000 -c 1 -i 0 -a 1 -x {0.0 3.0 -1 ------- null}
r -t 0.5108 -s 0 -d 2 -p cbr -e 1000 -c 1 -i 0 -a 1 -x {0.0 3.0 0 ------- null}
+ -t 0.5108 -s 2 -d 3 -p cbr -e 1000 -c 1 -i 0 -a 1 -x {0.0 3.0 0 ------- null}
- -t 0.5108 -s 2 -d 3 -p cbr -e 1000 -c 1 -i 0 -a 1 -x {0.0 3.0 0 ------- null}
h -t 0.5108 -s 2 -d 3 -p cbr -e 1000 -c 1 -i 0 -a 1 -x {0.0 3.0 -1 ------- null}
r -t 0.5348 -s 2 -d 3 -p cbr -e 1000 -c 1 -i 0 -a 1 -x {0.0 3.0 0 ------- null}
+ -t 0.66 -s 0 -d 2 -p cbr -e 1000 -c 1 -i 1 -a 1 -x {0.0 3.0 1 ------- null}
- -t 0.66 -s 0 -d 2 -p cbr -e 1000 -c 1 -i 1 -a 1 -x {0.0 3.0 1 ------- null}
h -t 0.66 -s 0 -d 2 -p cbr -e 1000 -c 1 -i 1 -a 1 -x {0.0 3.0 -1 ------- null}
r -t 0.6708 -s 0 -d 2 -p cbr -e 1000 -c 1 -i 1 -a 1 -x {0.0 3.0 1 ------- null}
+ -t 0.6708 -s 2 -d 3 -p cbr -e 1000 -c 1 -i 1 -a 1 -x {0.0 3.0 1 ------- null}
- -t 0.6708 -s 2 -d 3 -p cbr -e 1000 -c 1 -i 1 -a 1 -x {0.0 3.0 1 ------- null}
h -t 0.6708 -s 2 -d 3 -p cbr -e 1000 -c 1 -i 1 -a 1 -x {0.0 3.0 -1 ------- null}
r -t 0.6948 -s 2 -d 3 -p cbr -e 1000 -c 1 -i 1 -a 1 -x {0.0 3.0 1 ------- null}
+ -t 0.82 -s 0 -d 2 -p cbr -e 1000 -c 1 -i 2 -a 1 -x {0.0 3.0 2 ------- null}
- -t 0.82 -s 0 -d 2 -p cbr -e 1000 -c 1 -i 2 -a 1 -x {0.0 3.0 2 ------- null}
h -t 0.82 -s 0 -d 2 -p cbr -e 1000 -c 1 -i 2 -a 1 -x {0.0 3.0 -1 ------- null}
r -t 0.8308 -s 0 -d 2 -p cbr -e 1000 -c 1 -i 2 -a 1 -x {0.0 3.0 2 ------- null}
+ -t 0.8308 -s 2 -d 3 -p cbr -e 1000 -c 1 -i 2 -a 1 -x {0.0 3.0 2 ------- null}
- -t 0.8308 -s 2 -d 3 -p cbr -e 1000 -c 1 -i 2 -a 1 -x {0.0 3.0 2 ------- null}
h -t 0.8308 -s 2 -d 3 -p cbr -e 1000 -c 1 -i 2 -a 1 -x {0.0 3.0 -1 ------- null}
r -t 0.8548 -s 2 -d 3 -p cbr -e 1000 -c 1 -i 2 -a 1 -x {0.0 3.0 2 ------- null}
+ -t 0.98 -s 0 -d 2 -p cbr -e 1000 -c 1 -i 3 -a 1 -x {0.0 3.0 3 ------- null}
- -t 0.98 -s 0 -d 2 -p cbr -e 1000 -c 1 -i 3 -a 1 -x {0.0 3.0 3 ------- null}
h -t 0.98 -s 0 -d 2 -p cbr -e 1000 -c 1 -i 3 -a 1 -x {0.0 3.0 -1 ------- null}
r -t 0.9908 -s 0 -d 2 -p cbr -e 1000 -c 1 -i 3 -a 1 -x {0.0 3.0 3 ------- null}
+ -t 0.9908 -s 2 -d 3 -p cbr -e 1000 -c 1 -i 3 -a 1 -x {0.0 3.0 3 ------- null}
- -t 0.9908 -s 2 -d 3 -p cbr -e 1000 -c 1 -i 3 -a 1 -x {0.0 3.0 3 ------- null}
h -t 0.9908 -s 2 -d 3 -p cbr -e 1000 -c 1 -i 3 -a 1 -x {0.0 3.0 -1 ------- null}
r -t 1.0148 -s 2 -d 3 -p cbr -e 1000 -c 1 -i 3 -a 1 -x {0.0 3.0 3 ------- null}
+ -t 1.14 -s 0 -d 2 -p cbr -e 1000 -c 1 -i 4 -a 1 -x {0.0 3.0 4 ------- null}
- -t 1.14 -s 0 -d 2 -p cbr -e 1000 -c 1 -i 4 -a 1 -x {0.0 3.0 4 ------- null}
h -t 1.14 -s 0 -d 2 -p cbr -e 1000 -c 1 -i 4 -a 1 -x {0.0 3.0 -1 ------- null}
r -t 1.1508 -s 0 -d 2 -p cbr -e 1000 -c 1 -i 4 -a 1 -x {0.0 3.0 4 ------- null}
+ -t 1.1508 -s 2 -d 3 -p cbr -e 1000 -c 1 -i 4 -a 1 -x {0.0 3.0 4 ------- null}
- -t 1.1508 -s 2 -d 3 -p cbr -e 1000 -c 1 -i 4 -a 1 -x {0.0 3.0 4 ------- null}
h -t 1.1508 -s 2 -d 3 -p cbr -e 1000 -c 1 -i 4 -a 1 -x {0.0 3.0 -1 ------- null}
r -t 1.1748 -s 2 -d 3 -p cbr -e 1000 -c 1 -i 4 -a 1 -x {0.0 3.0 4 ------- null}
+ -t 1.3 -s 0 -d 2 -p cbr -e 1000 -c 1 -i 5 -a 1 -x {0.0 3.0 5 ------- null}
- -t 1.3 -s 0 -d 2 -p cbr -e 1000 -c 1 -i 5 -a 1 -x {0.0 3.0 5 ------- null}
h -t 1.3 -s 0 -d 2 -p cbr -e 1000 -c 1 -i 5 -a 1 -x {0.0 3.0 -1 ------- null}
r -t 1.3108 -s 0 -d 2 -p cbr -e 1000 -c 1 -i 5 -a 1 -x {0.0 3.0 5 ------- null}
+ -t 1.3108 -s 2 -d 3 -p cbr -e 1000 -c 1 -i 5 -a 1 -x {0.0 3.0 5 ------- null}
- -t 1.3108 -s 2 -d 3 -p cbr -e 1000 -c 1 -i 5 -a 1 -x {0.0 3.0 5 ------- null}
h -t 1.3108 -s 2 -d 3 -p cbr -e 1000 -c 1 -i 5 -a 1 -x {0.0 3.0 -1 ------- null}
r -t 1.3348 -s 2 -d 3 -p cbr -e 1000 -c 1 -i 5 -a 1 -x {0.0 3.0 5 ------- null}
+ -t 1.46 -s 0 -d 2 -p cbr -e 1000 -c 1 -i 6 -a 1 -x {0.0 3.0 6 ------- null}
- -t 1.46 -s 0 -d 2 -p cbr -e 1000 -c 1 -i 6 -a 1 -x {0.0 3.0 6 ------- null}
h -t 1.46 -s 0 -d 2 -p cbr -e 1000 -c 1 -i 6 -a 1 -x {0.0 3.0 -1 ------- null}
r -t 1.4708 -s 0 -d 2 -p cbr -e 1000 -c 1 -i 6 -a 1 -x {0.0 3.0 6 ------- null}
+ -t 1.4708 -s 2 -d 3 -p cbr -e 1000 -c 1 -i 6 -a 1 -x {0.0 3.0 6 ------- null}
- -t 1.4708 -s 2 -d 3 -p cbr -e 1000 -c 1 -i 6 -a 1 -x {0.0 3.0 6 ------- null}
h -t 1.4708 -s 2 -d 3 -p cbr -e 1000 -c 1 -i 6 -a 1 -x {0.0 3.0 -1 ------- null}
r -t 1.4948 -s 2 -d 3 -p cbr -e 1000 -c 1 -i 6 -a 1 -x {0.0 3.0 6 ------- null}
+ -t 1.62 -s 0 -d 2 -p cbr -e 1000 -c 1 -i 7 -a 1 -x {0.0 3.0 7 ------- null}
- -t 1.62 -s 0 -d 2 -p cbr -e 1000 -c 1 -i 7 -a 1 -x {0.0 3.0 7 ------- null}
h -t 1.62 -s 0 -d 2 -p cbr -e 1000 -c 1 -i 7 -a 1 -x {0.0 3.0 -1 ------- null}
r -t 1.6308 -s 0 -d 2 -p cbr -e 1000 -c 1 -i 7 -a 1 -x {0.0 3.0 7 ------- null}
+ -t 1.6308 -s 2 -d 3 -p cbr -e 1000 -c 1 -i 7 -a 1 -x {0.0 3.0 7 ------- null}
- -t 1.6308 -s 2 -d 3 -p cbr -e 1000 -c 1 -i 7 -a 1 -x {0.0 3.0 7 ------- null}
h -t 1.6308 -s 2 -d 3 -p cbr -e 1000 -c 1 -i 7 -a 1 -x {0.0 3.0 -1 ------- null}
r -t 1.6548 -s 2 -d 3 -p cbr -e 1000 -c 1 -i 7 -a 1 -x {0.0 3.0 7 ------- null}
+ -t 1.78 -s 0 -d 2 -p cbr -e 1000 -c 1 -i 8 -a 1 -x {0.0 3.0 8 ------- null}
- -t 1.78 -s 0 -d 2 -p cbr -e 1000 -c 1 -i 8 -a 1 -x {0.0 3.0 8 ------- null}
h -t 1.78 -s 0 -d 2 -p cbr -e 1000 -c 1 -i 8 -a 1 -x {0.0 3.0 -1 ------- null}
r -t 1.7908 -s 0 -d 2 -p cbr -e 1000 -c 1 -i 8 -a 1 -x {0.0 3.0 8 ------- null}
+ -t 1.7908 -s 2 -d 3 -p cbr -e 1000 -c 1 -i 8 -a 1 -x {0.0 3.0 8 ------- null}
+ -t 1.94 -s 0 -d 2 -p cbr -e 1000 -c 1 -i 9 -a 1 -x {0.0 3.0 9 ------- null}
- -t 1.94 -s 0 -d 2 -p cbr -e 1000 -c 1 -i 9 -a 1 -x {0.0 3.0 9 ------- null}
h -t 1.94 -s 0 -d 2 -p cbr -e 1000 -c 1 -i 9 -a 1 -x {0.0 3.0 -1 ------- null}
r -t 1.9508 -s 0 -d 2 -p cbr -e 1000 -c 1 -i 9 -a 1 -x {0.0 3.0 9 ------- null}
+ -t 1.9508 -s 2 -d 3 -p cbr -e 1000 -c 1 -i 9 -a 1 -x {0.0 3.0 9 ------- null}
+ -t 2.1 -s 0 -d 2 -p cbr -e 1000 -c 1 -i 10 -a 1 -x {0.0 3.0 10 ------- null}
- -t 2.1 -s 0 -d 2 -p cbr -e 1000 -c 1 -i 10 -a 1 -x {0.0 3.0 10 ------- null}
h -t 2.1 -s 0 -d 2 -p cbr -e 1000 -c 1 -i 10 -a 1 -x {0.0 3.0 -1 ------- null}
r -t 2.1108 -s 0 -d 2 -p cbr -e 1000 -c 1 -i 10 -a 1 -x {0.0 3.0 10 ------- null}
+ -t 2.1108 -s 2 -d 3 -p cbr -e 1000 -c 1 -i 10 -a 1 -x {0.0 3.0 10 ------- null}
+ -t 2.26 -s 0 -d 2 -p cbr -e 1000 -c 1 -i 11 -a 1 -x {0.0 3.0 11 ------- null}
- -t 2.26 -s 0 -d 2 -p cbr -e 1000 -c 1 -i 11 -a 1 -x {0.0 3.0 11 ------- null}
h -t 2.26 -s 0 -d 2 -p cbr -e 1000 -c 1 -i 11 -a 1 -x {0.0 3.0 -1 ------- null}
r -t 2.2708 -s 0 -d 2 -p cbr -e 1000 -c 1 -i 11 -a 1 -x {0.0 3.0 11 ------- null}
+ -t 2.2708 -s 2 -d 3 -p cbr -e 1000 -c 1 -i 11 -a 1 -x {0.0 3.0 11 ------- null}
+ -t 2.42 -s 0 -d 2 -p cbr -e 1000 -c 1 -i 12 -a 1 -x {0.0 3.0 12 ------- null}
- -t 2.42 -s 0 -d 2 -p cbr -e 1000 -c 1 -i 12 -a 1 -x {0.0 3.0 12 ------- null}
h -t 2.42 -s 0 -d 2 -p cbr -e 1000 -c 1 -i 12 -a 1 -x {0.0 3.0 -1 ------- null}
r -t 2.4308 -s 0 -d 2 -p cbr -e 1000 -c 1 -i 12 -a 1 -x {0.0 3.0 12 ------- null}
+ -t 2.4308 -s 2 -d 3 -p cbr -e 1000 -c 1 -i 12 -a 1 -x {0.0 3.0 12 ------- null}
+ -t 2.58 -s 0 -d 2 -p cbr -e 1000 -c 1 -i 13 -a 1 -x {0.0 3.0 13 ------- null}
- -t 2.58 -s 0 -d 2 -p cbr -e 1000 -c 1 -i 13 -a 1 -x {0.0 3.0 13 ------- null}
h -t 2.58 -s 0 -d 2 -p cbr -e 1000 -c 1 -i 13 -a 1 -x {0.0 3.0 -1 ------- null}
r -t 2.5908 -s 0 -d 2 -p cbr -e 1000 -c 1 -i 13 -a 1 -x {0.0 3.0 13 ------- null}
+ -t 2.5908 -s 2 -d 3 -p cbr -e 1000 -c 1 -i 13 -a 1 -x {0.0 3.0 13 ------- null}
+ -t 2.74 -s 0 -d 2 -p cbr -e 1000 -c 1 -i 14 -a 1 -x {0.0 3.0 14 ------- null}
- -t 2.74 -s 0 -d 2 -p cbr -e 1000 -c 1 -i 14 -a 1 -x {0.0 3.0 14 ------- null}
h -t 2.74 -s 0 -d 2 -p cbr -e 1000 -c 1 -i 14 -a 1 -x {0.0 3.0 -1 ------- null}
r -t 2.7508 -s 0 -d 2 -p cbr -e 1000 -c 1 -i 14 -a 1 -x {0.0 3.0 14 ------- null}
+ -t 2.7508 -s 2 -d 3 -p cbr -e 1000 -c 1 -i 14 -a 1 -x {0.0 3.0 14 ------- null}
- -t 2.7508 -s 2 -d 3 -p cbr -e 1000 -c 1 -i 14 -a 1 -x {0.0 3.0 14 ------- null}
h -t 2.7508 -s 2 -d 3 -p cbr -e 1000 -c 1 -i 14 -a 1 -x {0.0 3.0 -1 ------- null}
r -t 2.7748 -s 2 -d 3 -p cbr -e 1000 -c 1 -i 14 -a 1 -x {0.0 3.0 14 ------- null}
+ -t 2.9 -s 0 -d 2 -p cbr -e 1000 -c 1 -i 15 -a 1 -x {0.0 3.0 15 ------- null}
- -t 2.9 -s 0 -d 2 -p cbr -e 1000 -c 1 -i 15 -a 1 -x {0.0 3.0 15 ------- null}
h -t 2.9 -s 0 -d 2 -p cbr -e 1000 -c 1 -i 15 -a 1 -x {0.0 3.0 -1 ------- null}
r -t 2.9108 -s 0 -d 2 -p cbr -e 1000 -c 1 -i 15 -a 1 -x {0.0 3.0 15 ------- null}
+ -t 2.9108 -s 2 -d 3 -p cbr -e 1000 -c 1 -i 15 -a 1 -x {0.0 3.0 15 ------- null}
+ -t 3.06 -s 0 -d 2 -p cbr -e 1000 -c 1 -i 16 -a 1 -x {0.0 3.0 16 ------- null}
- -t 3.06 -s 0 -d 2 -p cbr -e 1000 -c 1 -i 16 -a 1 -x {0.0 3.0 16 ------- null}
h -t 3.06 -s 0 -d 2 -p cbr -e 1000 -c 1 -i 16 -a 1 -x {0.0 3.0 -1 ------- null}
r -t 3.0708 -s 0 -d 2 -p cbr -e 1000 -c 1 -i 16 -a 1 -x {0.0 3.0 16 ------- null}
+ -t 3.0708 -s 2 -d 3 -p cbr -e 1000 -c 1 -i 16 -a 1 -x {0.0 3.0 16 ------- null}
+ -t 3.22 -s 0 -d 2 -p cbr -e 1000 -c 1 -i 17 -a 1 -x {0.0 3.0 17 ------- null}
- -t 3.22 -s 0 -d 2 -p cbr -e 1000 -c 1 -i 17 -a 1 -x {0.0 3.0 17 ------- null}
h -t 3.22 -s 0 -d 2 -p cbr -e 1000 -c 1 -i 17 -a 1 -x {0.0 3.0 -1 ------- null}
r -t 3.2308 -s 0 -d 2 -p cbr -e 1000 -c 1 -i 17 -a 1 -x {0.0 3.0 17 ------- null}
+ -t 3.2308 -s 2 -d 3 -p cbr -e 1000 -c 1 -i 17 -a 1 -x {0.0 3.0 17 ------- null}
+ -t 3.38 -s 0 -d 2 -p cbr -e 1000 -c 1 -i 18 -a 1 -x {0.0 3.0 18 ------- null}
- -t 3.38 -s 0 -d 2 -p cbr -e 1000 -c 1 -i 18 -a 1 -x {0.0 3.0 18 ------- null}
h -t 3.38 -s 0 -d 2 -p cbr -e 1000 -c 1 -i 18 -a 1 -x {0.0 3.0 -1 ------- null}
r -t 3.3908 -s 0 -d 2 -p cbr -e 1000 -c 1 -i 18 -a 1 -x {0.0 3.0 18 ------- null}
+ -t 3.3908 -s 2 -d 3 -p cbr -e 1000 -c 1 -i 18 -a 1 -x {0.0 3.0 18 ------- null}
+ -t 3.54 -s 0 -d 2 -p cbr -e 1000 -c 1 -i 19 -a 1 -x {0.0 3.0 19 ------- null}
- -t 3.54 -s 0 -d 2 -p cbr -e 1000 -c 1 -i 19 -a 1 -x {0.0 3.0 19 ------- null}
h -t 3.54 -s 0 -d 2 -p cbr -e 1000 -c 1 -i 19 -a 1 -x {0.0 3.0 -1 ------- null}
r -t 3.5508 -s 0 -d 2 -p cbr -e 1000 -c 1 -i 19 -a 1 -x {0.0 3.0 19 ------- null}
+ -t 3.5508 -s 2 -d 3 -p cbr -e 1000 -c 1 -i 19 -a 1 -x {0.0 3.0 19 ------- null}
+ -t 3.7 -s 0 -d 2 -p cbr -e 1000 -c 1 -i 20 -a 1 -x {0.0 3.0 20 ------- null}
- -t 3.7 -s 0 -d 2 -p cbr -e 1000 -c 1 -i 20 -a 1 -x {0.0 3.0 20 ------- null}
h -t 3.7 -s 0 -d 2 -p cbr -e 1000 -c 1 -i 20 -a 1 -x {0.0 3.0 -1 ------- null}
r -t 3.7108 -s 0 -d 2 -p cbr -e 1000 -c 1 -i 20 -a 1 -x {0.0 3.0 20 ------- null}
+ -t 3.7108 -s 2 -d 3 -p cbr -e 1000 -c 1 -i 20 -a 1 -x {0.0 3.0 20 ------- null}
+ -t 3.86 -s 0 -d 2 -p cbr -e 1000 -c 1 -i 21 -a 1 -x {0.0 3.0 21 ------- null}
- -t 3.86 -s 0 -d 2 -p cbr -e 1000 -c 1 -i 21 -a 1 -x {0.0 3.0 21 ------- null}
h -t 3.86 -s 0 -d 2 -p cbr -e 1000 -c 1 -i 21 -a 1 -x {0.0 3.0 -1 ------- null}
r -t 3.8708 -s 0 -d 2 -p cbr -e 1000 -c 1 -i 21 -a 1 -x {0.0 3.0 21 ------- null}
+ -t 3.8708 -s 2 -d 3 -p cbr -e 1000 -c 1 -i 21 -a 1 -x {0.0 3.0 21 ------- null}
- -t 3.8708 -s 2 -d 3 -p cbr -e 1000 -c 1 -i 21 -a 1 -x {0.0 3.0 21 ------- null}
h -t 3.8708 -s 2 -d 3 -p cbr -e 1000 -c 1 -i 21 -a 1 -x {0.0 3.0 -1 ------- null}
r -t 3.8948 -s 2 -d 3 -p cbr -e 1000 -c 1 -i 21 -a 1 -x {0.0 3.0 21 ------- null}
+ -t 4.02 -s 0 -d 2 -p cbr -e 1000 -c 1 -i 22 -a 1 -x {0.0 3.0 22 ------- null}
- -t 4.02 -s 0 -d 2 -p cbr -e 1000 -c 1 -i 22 -a 1 -x {0.0 3.0 22 ------- null}
h -t 4.02 -s 0 -d 2 -p cbr -e 1000 -c 1 -i 22 -a 1 -x {0.0 3.0 -1 ------- null}
r -t 4.0308 -s 0 -d 2 -p cbr -e 1000 -c 1 -i 22 -a 1 -x {0.0 3.0 22 ------- null}
+ -t 4.0308 -s 2 -d 3 -p cbr -e 1000 -c 1 -i 22 -a 1 -x {0.0 3.0 22 ------- null}
+ -t 4.18 -s 0 -d 2 -p cbr -e 1000 -c 1 -i 23 -a 1 -x {0.0 3.0 23 ------- null}
- -t 4.18 -s 0 -d 2 -p cbr -e 1000 -c 1 -i 23 -a 1 -x {0.0 3.0 23 ------- null}
h -t 4.18 -s 0 -d 2 -p cbr -e 1000 -c 1 -i 23 -a 1 -x {0.0 3.0 -1 ------- null}
r -t 4.1908 -s 0 -d 2 -p cbr -e 1000 -c 1 -i 23 -a 1 -x {0.0 3.0 23 ------- null}
+ -t 4.1908 -s 2 -d 3 -p cbr -e 1000 -c 1 -i 23 -a 1 -x {0.0 3.0 23 ------- null}
+ -t 4.34 -s 0 -d 2 -p cbr -e 1000 -c 1 -i 24 -a 1 -x {0.0 3.0 24 ------- null}
- -t 4.34 -s 0 -d 2 -p cbr -e 1000 -c 1 -i 24 -a 1 -x {0.0 3.0 24 ------- null}
h -t 4.34 -s 0 -d 2 -p cbr -e 1000 -c 1 -i 24 -a 1 -x {0.0 3.0 -1 ------- null}
r -t 4.3508 -s 0 -d 2 -p cbr -e 1000 -c 1 -i 24 -a 1 -x {0.0 3.0 24 ------- null}
+ -t 4.3508 -s 2 -d 3 -p cbr -e 1000 -c 1 -i 24 -a 1 -x {0.0 3.0 24 ------- null}
+ -t 4.5 -s 0 -d 2 -p cbr -e 1000 -c 1 -i 25 -a 1 -x {0.0 3.0 25 ------- null}
- -t 4.5 -s 0 -d 2 -p cbr -e 1000 -c 1 -i 25 -a 1 -x {0.0 3.0 25 ------- null}
h -t 4.5 -s 0 -d 2 -p cbr -e 1000 -c 1 -i 25 -a 1 -x {0.0 3.0 -1 ------- null}
r -t 4.5108 -s 0 -d 2 -p cbr -e 1000 -c 1 -i 25 -a 1 -x {0.0 3.0 25 ------- null}
+ -t 4.5108 -s 2 -d 3 -p cbr -e 1000 -c 1 -i 25 -a 1 -x {0.0 3.0 25 ------- null}
+ -t 4.66 -s 0 -d 2 -p cbr -e 1000 -c 1 -i 26 -a 1 -x {0.0 3.0 26 ------- null}
- -t 4.66 -s 0 -d 2 -p cbr -e 1000 -c 1 -i 26 -a 1 -x {0.0 3.0 26 ------- null}
h -t 4.66 -s 0 -d 2 -p cbr -e 1000 -c 1 -i 26 -a 1 -x {0.0 3.0 -1 ------- null}
r -t 4.6708 -s 0 -d 2 -p cbr -e 1000 -c 1 -i 26 -a 1 -x {0.0 3.0 26 ------- null}
+ -t 4.6708 -s 2 -d 3 -p cbr -e 1000 -c 1 -i 26 -a 1 -x {0.0 3.0 26 ------- null}
+ -t 4.82 -s 0 -d 2 -p cbr -e 1000 -c 1 -i 27 -a 1 -x {0.0 3.0 27 ------- null}
- -t 4.82 -s 0 -d 2 -p cbr -e 1000 -c 1 -i 27 -a 1 -x {0.0 3.0 27 ------- null}
h -t 4.82 -s 0 -d 2 -p cbr -e 1000 -c 1 -i 27 -a 1 -x {0.0 3.0 -1 ------- null}
r -t 4.8308 -s 0 -d 2 -p cbr -e 1000 -c 1 -i 27 -a 1 -x {0.0 3.0 27 ------- null}
+ -t 4.8308 -s 2 -d 3 -p cbr -e 1000 -c 1 -i 27 -a 1 -x {0.0 3.0 27 ------- null}
+ -t 4.98 -s 0 -d 2 -p cbr -e 1000 -c 1 -i 28 -a 1 -x {0.0 3.0 28 ------- null}
- -t 4.98 -s 0 -d 2 -p cbr -e 1000 -c 1 -i 28 -a 1 -x {0.0 3.0 28 ------- null}
h -t 4.98 -s 0 -d 2 -p cbr -e 1000 -c 1 -i 28 -a 1 -x {0.0 3.0 -1 ------- null}
r -t 4.9908 -s 0 -d 2 -p cbr -e 1000 -c 1 -i 28 -a 1 -x {0.0 3.0 28 ------- null}
+ -t 4.9908 -s 2 -d 3 -p cbr -e 1000 -c 1 -i 28 -a 1 -x {0.0 3.0 28 ------- null}
- -t 4.9908 -s 2 -d 3 -p cbr -e 1000 -c 1 -i 28 -a 1 -x {0.0 3.0 28 ------- null}
h -t 4.9908 -s 2 -d 3 -p cbr -e 1000 -c 1 -i 28 -a 1 -x {0.0 3.0 -1 ------- null}
r -t 5.0148 -s 2 -d 3 -p cbr -e 1000 -c 1 -i 28 -a 1 -x {0.0 3.0 28 ------- null}
+ -t 5.14 -s 0 -d 2 -p cbr -e 1000 -c 1 -i 29 -a 1 -x {0.0 3.0 29 ------- null}
- -t 5.14 -s 0 -d 2 -p cbr -e 1000 -c 1 -i 29 -a 1 -x {0.0 3.0 29 ------- null}
h -t 5.14 -s 0 -d 2 -p cbr -e 1000 -c 1 -i 29 -a 1 -x {0.0 3.0 -1 ------- null}
r -t 5.1508 -s 0 -d 2 -p cbr -e 1000 -c 1 -i 29 -a 1 -x {0.0 3.0 29 ------- null}
+ -t 5.1508 -s 2 -d 3 -p cbr -e 1000 -c 1 -i 29 -a 1 -x {0.0 3.0 29 ------- null}
- -t 5.1508 -s 2 -d 3 -p cbr -e 1000 -c 1 -i 29 -a 1 -x {0.0 3.0 29 ------- null}
h -t 5.1508 -s 2 -d 3 -p cbr -e 1000 -c 1 -i 29 -a 1 -x {0.0 3.0 -1 ------- null}
r -t 5.1748 -s 2 -d 3 -p cbr -e 1000 -c 1 -i 29 -a 1 -x {0.0 3.0 29 ------- null}
+ -t 5.3 -s 0 -d 2 -p cbr -e 1000 -c 1 -i 30 -a 1 -x {0.0 3.0 30 ------- null}
- -t 5.3 -s 0 -d 2 -p cbr -e 1000 -c 1 -i 30 -a 1 -x {0.0 3.0 30 ------- null}
h -t 5.3 -s 0 -d 2 -p cbr -e 1000 -c 1 -i 30 -a 1 -x {0.0 3.0 -1 ------- null}
r -t 5.3108 -s 0 -d 2 -p cbr -e 1000 -c 1 -i 30 -a 1 -x {0.0 3.0 30 ------- null}
+ -t 5.3108 -s 2 -d 3 -p cbr -e 1000 -c 1 -i 30 -a 1 -x {0.0 3.0 30 ------- null}
- -t 5.3108 -s 2 -d 3 -p cbr -e 1000 -c 1 -i 30 -a 1 -x {0.0 3.0 30 ------- null}
h -t 5.3108 -s 2 -d 3 -p cbr -e 1000 -c 1 -i 30 -a 1 -x {0.0 3.0 -1 ------- null}
r -t 5.3348 -s 2 -d 3 -p cbr -e 1000 -c 1 -i 30 -a 1 -x {0.0 3.0 30 ------- null}
+ -t 5.46 -s 0 -d 2 -p cbr -e 1000 -c 1 -i 31 -a 1 -x {0.0 3.0 31 ------- null}
- -t 5.46 -s 0 -d 2 -p cbr -e 1000 -c 1 -i 31 -a 1 -x {0.0 3.0 31 ------- null}
h -t 5.46 -s 0 -d 2 -p cbr -e 1000 -c 1 -i 31 -a 1 -x {0.0 3.0 -1 ------- null}
r -t 5.4708 -s 0 -d 2 -p cbr -e 1000 -c 1 -i 31 -a 1 -x {0.0 3.0 31 ------- null}
+ -t 5.4708 -s 2 -d 3 -p cbr -e 1000 -c 1 -i 31 -a 1 -x {0.0 3.0 31 ------- null}
- -t 5.4708 -s 2 -d 3 -p cbr -e 1000 -c 1 -i 31 -a 1 -x {0.0 3.0 31 ------- null}
h -t 5.4708 -s 2 -d 3 -p cbr -e 1000 -c 1 -i 31 -a 1 -x {0.0 3.0 -1 ------- null}
r -t 5.4948 -s 2 -d 3 -p cbr -e 1000 -c 1 -i 31 -a 1 -x {0.0 3.0 31 ------- null}
+ -t 5.62 -s 0 -d 2 -p cbr -e 1000 -c 1 -i 32 -a 1 -x {0.0 3.0 32 ------- null}
- -t 5.62 -s 0 -d 2 -p cbr -e 1000 -c 1 -i 32 -a 1 -x {0.0 3.0 32 ------- null}
h -t 5.62 -s 0 -d 2 -p cbr -e 1000 -c 1 -i 32 -a 1 -x {0.0 3.0 -1 ------- null}
r -t 5.6308 -s 0 -d 2 -p cbr -e 1000 -c 1 -i 32 -a 1 -x {0.0 3.0 32 ------- null}
+ -t 5.6308 -s 2 -d 3 -p cbr -e 1000 -c 1 -i 32 -a 1 -x {0.0 3.0 32 ------- null}
- -t 5.6308 -s 2 -d 3 -p cbr -e 1000 -c 1 -i 32 -a 1 -x {0.0 3.0 32 ------- null}
h -t 5.6308 -s 2 -d 3 -p cbr -e 1000 -c 1 -i 32 -a 1 -x {0.0 3.0 -1 ------- null}
r -t 5.6548 -s 2 -d 3 -p cbr -e 1000 -c 1 -i 32 -a 1 -x {0.0 3.0 32 ------- null}
+ -t 5.78 -s 0 -d 2 -p cbr -e 1000 -c 1 -i 33 -a 1 -x {0.0 3.0 33 ------- null}
- -t 5.78 -s 0 -d 2 -p cbr -e 1000 -c 1 -i 33 -a 1 -x {0.0 3.0 33 ------- null}
h -t 5.78 -s 0 -d 2 -p cbr -e 1000 -c 1 -i 33 -a 1 -x {0.0 3.0 -1 ------- null}
r -t 5.7908 -s 0 -d 2 -p cbr -e 1000 -c 1 -i 33 -a 1 -x {0.0 3.0 33 ------- null}
+ -t 5.7908 -s 2 -d 3 -p cbr -e 1000 -c 1 -i 33 -a 1 -x {0.0 3.0 33 ------- null}
- -t 5.7908 -s 2 -d 3 -p cbr -e 1000 -c 1 -i 33 -a 1 -x {0.0 3.0 33 ------- null}
h -t 5.7908 -s 2 -d 3 -p cbr -e 1000 -c 1 -i 33 -a 1 -x {0.0 3.0 -1 ------- null}
r -t 5.8148 -s 2 -d 3 -p cbr -e 1000 -c 1 -i 33 -a 1 -x {0.0 3.0 33 ------- null}
+ -t 5.94 -s 0 -d 2 -p cbr -e 1000 -c 1 -i 34 -a 1 -x {0.0 3.0 34 ------- null}
- -t 5.94 -s 0 -d 2 -p cbr -e 1000 -c 1 -i 34 -a 1 -x {0.0 3.0 34 ------- null}
h -t 5.94 -s 0 -d 2 -p cbr -e 1000 -c 1 -i 34 -a 1 -x {0.0 3.0 -1 ------- null}
r -t 5.9508 -s 0 -d 2 -p cbr -e 1000 -c 1 -i 34 -a 1 -x {0.0 3.0 34 ------- null}
+ -t 5.9508 -s 2 -d 3 -p cbr -e 1000 -c 1 -i 34 -a 1 -x {0.0 3.0 34 ------- null}
- -t 5.9508 -s 2 -d 3 -p cbr -e 1000 -c 1 -i 34 -a 1 -x {0.0 3.0 34 ------- null}
h -t 5.9508 -s 2 -d 3 -p cbr -e 1000 -c 1 -i 34 -a 1 -x {0.0 3.0 -1 ------- null}
r -t 5.9748 -s 2 -d 3 -p cbr -e 1000 -c 1 -i 34 -a 1 -x {0.0 3.0 34 ------- null}
+ -t 6.1 -s 0 -d 2 -p cbr -e 1000 -c 1 -i 35 -a 1 -x {0.0 3.0 35 ------- null}
- -t 6.1 -s 0 -d 2 -p cbr -e 1000 -c 1 -i 35 -a 1 -x {0.0 3.0 35 ------- null}
h -t 6.1 -s 0 -d 2 -p cbr -e 1000 -c 1 -i 35 -a 1 -x {0.0 3.0 -1 ------- null}
r -t 6.1108 -s 0 -d 2 -p cbr -e 1000 -c 1 -i 35 -a 1 -x {0.0 3.0 35 ------- null}
+ -t 6.1108 -s 2 -d 3 -p cbr -e 1000 -c 1 -i 35 -a 1 -x {0.0 3.0 35 ------- null}
- -t 6.1108 -s 2 -d 3 -p cbr -e 1000 -c 1 -i 35 -a 1 -x {0.0 3.0 35 ------- null}
h -t 6.1108 -s 2 -d 3 -p cbr -e 1000 -c 1 -i 35 -a 1 -x {0.0 3.0 -1 ------- null}
r -t 6.1348 -s 2 -d 3 -p cbr -e 1000 -c 1 -i 35 -a 1 -x {0.0 3.0 35 ------- null}
+ -t 6.26 -s 0 -d 2 -p cbr -e 1000 -c 1 -i 36 -a 1 -x {0.0 3.0 36 ------- null}
- -t 6.26 -s 0 -d 2 -p cbr -e 1000 -c 1 -i 36 -a 1 -x {0.0 3.0 36 ------- null}
h -t 6.26 -s 0 -d 2 -p cbr -e 1000 -c 1 -i 36 -a 1 -x {0.0 3.0 -1 ------- null}
r -t 6.2708 -s 0 -d 2 -p cbr -e 1000 -c 1 -i 36 -a 1 -x {0.0 3.0 36 ------- null}
+ -t 6.2708 -s 2 -d 3 -p cbr -e 1000 -c 1 -i 36 -a 1 -x {0.0 3.0 36 ------- null}
- -t 6.2708 -s 2 -d 3 -p cbr -e 1000 -c 1 -i 36 -a 1 -x {0.0 3.0 36 ------- null}
h -t 6.2708 -s 2 -d 3 -p cbr -e 1000 -c 1 -i 36 -a 1 -x {0.0 3.0 -1 ------- null}
r -t 6.2948 -s 2 -d 3 -p cbr -e 1000 -c 1 -i 36 -a 1 -x {0.0 3.0 36 ------- null}
+ -t 6.42 -s 0 -d 2 -p cbr -e 1000 -c 1 -i 37 -a 1 -x {0.0 3.0 37 ------- null}
- -t 6.42 -s 0 -d 2 -p cbr -e 1000 -c 1 -i 37 -a 1 -x {0.0 3.0 37 ------- null}
h -t 6.42 -s 0 -d 2 -p cbr -e 1000 -c 1 -i 37 -a 1 -x {0.0 3.0 -1 ------- null}
r -t 6.4308 -s 0 -d 2 -p cbr -e 1000 -c 1 -i 37 -a 1 -x {0.0 3.0 37 ------- null}
+ -t 6.4308 -s 2 -d 3 -p cbr -e 1000 -c 1 -i 37 -a 1 -x {0.0 3.0 37 ------- null}
- -t 6.4308 -s 2 -d 3 -p cbr -e 1000 -c 1 -i 37 -a 1 -x {0.0 3.0 37 ------- null}
h -t 6.4308 -s 2 -d 3 -p cbr -e 1000 -c 1 -i 37 -a 1 -x {0.0 3.0 -1 ------- null}
r -t 6.4548 -s 2 -d 3 -p cbr -e 1000 -c 1 -i 37 -a 1 -x {0.0 3.0 37 ------- null}
+ -t 6.58 -s 0 -d 2 -p cbr -e 1000 -c 1 -i 38 -a 1 -x {0.0 3.0 38 ------- null}
- -t 6.58 -s 0 -d 2 -p cbr -e 1000 -c 1 -i 38 -a 1 -x {0.0 3.0 38 ------- null}
h -t 6.58 -s 0 -d 2 -p cbr -e 1000 -c 1 -i 38 -a 1 -x {0.0 3.0 -1 ------- null}
r -t 6.5908 -s 0 -d 2 -p cbr -e 1000 -c 1 -i 38 -a 1 -x {0.0 3.0 38 ------- null}
+ -t 6.5908 -s 2 -d 3 -p cbr -e 1000 -c 1 -i 38 -a 1 -x {0.0 3.0 38 ------- null}
- -t 6.5908 -s 2 -d 3 -p cbr -e 1000 -c 1 -i 38 -a 1 -x {0.0 3.0 38 ------- null}
h -t 6.5908 -s 2 -d 3 -p cbr -e 1000 -c 1 -i 38 -a 1 -x {0.0 3.0 -1 ------- null}
r -t 6.6148 -s 2 -d 3 -p cbr -e 1000 -c 1 -i 38 -a 1 -x {0.0 3.0 38 ------- null}
+ -t 6.74 -s 0 -d 2 -p cbr -e 1000 -c 1 -i 39 -a 1 -x {0.0 3.0 39 ------- null}
- -t 6.74 -s 0 -d 2 -p cbr -e 1000 -c 1 -i 39 -a 1 -x {0.0 3.0 39 ------- null}
h -t 6.74 -s 0 -d 2 -p cbr -e 1000 -c 1 -i 39 -a 1 -x {0.0 3.0 -1 ------- null}
r -t 6.7508 -s 0 -d 2 -p cbr -e 1000 -c 1 -i 39 -a 1 -x {0.0 3.0 39 ------- null}
+ -t 6.7508 -s 2 -d 3 -p cbr -e 1000 -c 1 -i 39 -a 1 -x {0.0 3.0 39 ------- null}
- -t 6.7508 -s 2 -d 3 -p cbr -e 1000 -c 1 -i 39 -a 1 -x {0.0 3.0 39 ------- null}
h -t 6.7508 -s 2 -d 3 -p cbr -e 1000 -c 1 -i 39 -a 1 -x {0.0 3.0 -1 ------- null}
r -t 6.7748 -s 2 -d 3 -p cbr -e 1000 -c 1 -i 39 -a 1 -x {0.0 3.0 39 ------- null}
+ -t 6.9 -s 0 -d 2 -p cbr -e 1000 -c 1 -i 40 -a 1 -x {0.0 3.0 40 ------- null}
- -t 6.9 -s 0 -d 2 -p cbr -e 1000 -c 1 -i 40 -a 1 -x {0.0 3.0 40 ------- null}
h -t 6.9 -s 0 -d 2 -p cbr -e 1000 -c 1 -i 40 -a 1 -x {0.0 3.0 -1 ------- null}
r -t 6.9108 -s 0 -d 2 -p cbr -e 1000 -c 1 -i 40 -a 1 -x {0.0 3.0 40 ------- null}
+ -t 6.9108 -s 2 -d 3 -p cbr -e 1000 -c 1 -i 40 -a 1 -x {0.0 3.0 40 ------- null}
- -t 6.9108 -s 2 -d 3 -p cbr -e 1000 -c 1 -i 40 -a 1 -x {0.0 3.0 40 ------- null}
h -t 6.9108 -s 2 -d 3 -p cbr -e 1000 -c 1 -i 40 -a 1 -x {0.0 3.0 -1 ------- null}
r -t 6.9348 -s 2 -d 3 -p cbr -e 1000 -c 1 -i 40 -a 1 -x {0.0 3.0 40 ------- null}
+ -t 7.06 -s 0 -d 2 -p cbr -e 1000 -c 1 -i 41 -a 1 -x {0.0 3.0 41 ------- null}
- -t 7.06 -s 0 -d 2 -p cbr -e 1000 -c 1 -i 41 -a 1 -x {0.0 3.0 41 ------- null}
h -t 7.06 -s 0 -d 2 -p cbr -e 1000 -c 1 -i 41 -a 1 -x {0.0 3.0 -1 ------- null}
r -t 7.0708 -s 0 -d 2 -p cbr -e 1000 -c 1 -i 41 -a 1 -x {0.0 3.0 41 ------- null}
+ -t 7.0708 -s 2 -d 3 -p cbr -e 1000 -c 1 -i 41 -a 1 -x {0.0 3.0 41 ------- null}
- -t 7.0708 -s 2 -d 3 -p cbr -e 1000 -c 1 -i 41 -a 1 -x {0.0 3.0 41 ------- null}
h -t 7.0708 -s 2 -d 3 -p cbr -e 1000 -c 1 -i 41 -a 1 -x {0.0 3.0 -1 ------- null}
r -t 7.0948 -s 2 -d 3 -p cbr -e 1000 -c 1 -i 41 -a 1 -x {0.0 3.0 41 ------- null}
+ -t 7.22 -s 0 -d 2 -p cbr -e 1000 -c 1 -i 42 -a 1 -x {0.0 3.0 42 ------- null}
- -t 7.22 -s 0 -d 2 -p cbr -e 1000 -c 1 -i 42 -a 1 -x {0.0 3.0 42 ------- null}
h -t 7.22 -s 0 -d 2 -p cbr -e 1000 -c 1 -i 42 -a 1 -x {0.0 3.0 -1 ------- null}
r -t 7.2308 -s 0 -d 2 -p cbr -e 1000 -c 1 -i 42 -a 1 -x {0.0 3.0 42 ------- null}
+ -t 7.2308 -s 2 -d 3 -p cbr -e 1000 -c 1 -i 42 -a 1 -x {0.0 3.0 42 ------- null}
- -t 7.2308 -s 2 -d 3 -p cbr -e 1000 -c 1 -i 42 -a 1 -x {0.0 3.0 42 ------- null}
h -t 7.2308 -s 2 -d 3 -p cbr -e 1000 -c 1 -i 42 -a 1 -x {0.0 3.0 -1 ------- null}
r -t 7.2548 -s 2 -d 3 -p cbr -e 1000 -c 1 -i 42 -a 1 -x {0.0 3.0 42 ------- null}
+ -t 7.38 -s 0 -d 2 -p cbr -e 1000 -c 1 -i 43 -a 1 -x {0.0 3.0 43 ------- null}
- -t 7.38 -s 0 -d 2 -p cbr -e 1000 -c 1 -i 43 -a 1 -x {0.0 3.0 43 ------- null}
h -t 7.38 -s 0 -d 2 -p cbr -e 1000 -c 1 -i 43 -a 1 -x {0.0 3.0 -1 ------- null}
r -t 7.3908 -s 0 -d 2 -p cbr -e 1000 -c 1 -i 43 -a 1 -x {0.0 3.0 43 ------- null}
+ -t 7.3908 -s 2 -d 3 -p cbr -e 1000 -c 1 -i 43 -a 1 -x {0.0 3.0 43 ------- null}
- -t 7.3908 -s 2 -d 3 -p cbr -e 1000 -c 1 -i 43 -a 1 -x {0.0 3.0 43 ------- null}
h -t 7.3908 -s 2 -d 3 -p cbr -e 1000 -c 1 -i 43 -a 1 -x {0.0 3.0 -1 ------- null}
r -t 7.4148 -s 2 -d 3 -p cbr -e 1000 -c 1 -i 43 -a 1 -x {0.0 3.0 43 ------- null}
+ -t 7.54 -s 0 -d 2 -p cbr -e 1000 -c 1 -i 44 -a 1 -x {0.0 3.0 44 ------- null}
- -t 7.54 -s 0 -d 2 -p cbr -e 1000 -c 1 -i 44 -a 1 -x {0.0 3.0 44 ------- null}
h -t 7.54 -s 0 -d 2 -p cbr -e 1000 -c 1 -i 44 -a 1 -x {0.0 3.0 -1 ------- null}
r -t 7.5508 -s 0 -d 2 -p cbr -e 1000 -c 1 -i 44 -a 1 -x {0.0 3.0 44 ------- null}
+ -t 7.5508 -s 2 -d 3 -p cbr -e 1000 -c 1 -i 44 -a 1 -x {0.0 3.0 44 ------- null}
- -t 7.5508 -s 2 -d 3 -p cbr -e 1000 -c 1 -i 44 -a 1 -x {0.0 3.0 44 ------- null}
h -t 7.5508 -s 2 -d 3 -p cbr -e 1000 -c 1 -i 44 -a 1 -x {0.0 3.0 -1 ------- null}
r -t 7.5748 -s 2 -d 3 -p cbr -e 1000 -c 1 -i 44 -a 1 -x {0.0 3.0 44 ------- null}
+ -t 7.7 -s 0 -d 2 -p cbr -e 1000 -c 1 -i 45 -a 1 -x {0.0 3.0 45 ------- null}
- -t 7.7 -s 0 -d 2 -p cbr -e 1000 -c 1 -i 45 -a 1 -x {0.0 3.0 45 ------- null}
h -t 7.7 -s 0 -d 2 -p cbr -e 1000 -c 1 -i 45 -a 1 -x {0.0 3.0 -1 ------- null}
r -t 7.7108 -s 0 -d 2 -p cbr -e 1000 -c 1 -i 45 -a 1 -x {0.0 3.0 45 ------- null}
+ -t 7.7108 -s 2 -d 3 -p cbr -e 1000 -c 1 -i 45 -a 1 -x {0.0 3.0 45 ------- null}
- -t 7.7108 -s 2 -d 3 -p cbr -e 1000 -c 1 -i 45 -a 1 -x {0.0 3.0 45 ------- null}
h -t 7.7108 -s 2 -d 3 -p cbr -e 1000 -c 1 -i 45 -a 1 -x {0.0 3.0 -1 ------- null}
r -t 7.7348 -s 2 -d 3 -p cbr -e 1000 -c 1 -i 45 -a 1 -x {0.0 3.0 45 ------- null}
+ -t 7.86 -s 0 -d 2 -p cbr -e 1000 -c 1 -i 46 -a 1 -x {0.0 3.0 46 ------- null}
- -t 7.86 -s 0 -d 2 -p cbr -e 1000 -c 1 -i 46 -a 1 -x {0.0 3.0 46 ------- null}
h -t 7.86 -s 0 -d 2 -p cbr -e 1000 -c 1 -i 46 -a 1 -x {0.0 3.0 -1 ------- null}
r -t 7.8708 -s 0 -d 2 -p cbr -e 1000 -c 1 -i 46 -a 1 -x {0.0 3.0 46 ------- null}
+ -t 7.8708 -s 2 -d 3 -p cbr -e 1000 -c 1 -i 46 -a 1 -x {0.0 3.0 46 ------- null}
- -t 7.8708 -s 2 -d 3 -p cbr -e 1000 -c 1 -i 46 -a 1 -x {0.0 3.0 46 ------- null}
h -t 7.8708 -s 2 -d 3 -p cbr -e 1000 -c 1 -i 46 -a 1 -x {0.0 3.0 -1 ------- null}
r -t 7.8948 -s 2 -d 3 -p cbr -e 1000 -c 1 -i 46 -a 1 -x {0.0 3.0 46 ------- null}
+ -t 8.02 -s 0 -d 2 -p cbr -e 1000 -c 1 -i 47 -a 1 -x {0.0 3.0 47 ------- null}
- -t 8.02 -s 0 -d 2 -p cbr -e 1000 -c 1 -i 47 -a 1 -x {0.0 3.0 47 ------- null}
h -t 8.02 -s 0 -d 2 -p cbr -e 1000 -c 1 -i 47 -a 1 -x {0.0 3.0 -1 ------- null}
r -t 8.0308 -s 0 -d 2 -p cbr -e 1000 -c 1 -i 47 -a 1 -x {0.0 3.0 47 ------- null}
+ -t 8.0308 -s 2 -d 3 -p cbr -e 1000 -c 1 -i 47 -a 1 -x {0.0 3.0 47 ------- null}
- -t 8.0308 -s 2 -d 3 -p cbr -e 1000 -c 1 -i 47 -a 1 -x {0.0 3.0 47 ------- null}
h -t 8.0308 -s 2 -d 3 -p cbr -e 1000 -c 1 -i 47 -a 1 -x {0.0 3.0 -1 ------- null}
r -t 8.0548 -s 2 -d 3 -p cbr -e 1000 -c 1 -i 47 -a 1 -x {0.0 3.0 47 ------- null}
+ -t 8.18000000000001 -s 0 -d 2 -p cbr -e 1000 -c 1 -i 48 -a 1 -x {0.0 3.0 48 ------- null}
- -t 8.18000000000001 -s 0 -d 2 -p cbr -e 1000 -c 1 -i 48 -a 1 -x {0.0 3.0 48 ------- null}
h -t 8.18000000000001 -s 0 -d 2 -p cbr -e 1000 -c 1 -i 48 -a 1 -x {0.0 3.0 -1 ------- null}
r -t 8.1908 -s 0 -d 2 -p cbr -e 1000 -c 1 -i 48 -a 1 -x {0.0 3.0 48 ------- null}
+ -t 8.1908 -s 2 -d 3 -p cbr -e 1000 -c 1 -i 48 -a 1 -x {0.0 3.0 48 ------- null}
- -t 8.1908 -s 2 -d 3 -p cbr -e 1000 -c 1 -i 48 -a 1 -x {0.0 3.0 48 ------- null}
h -t 8.1908 -s 2 -d 3 -p cbr -e 1000 -c 1 -i 48 -a 1 -x {0.0 3.0 -1 ------- null}
r -t 8.2148 -s 2 -d 3 -p cbr -e 1000 -c 1 -i 48 -a 1 -x {0.0 3.0 48 ------- null}
+ -t 8.34000000000001 -s 0 -d 2 -p cbr -e 1000 -c 1 -i 49 -a 1 -x {0.0 3.0 49 ------- null}
- -t 8.34000000000001 -s 0 -d 2 -p cbr -e 1000 -c 1 -i 49 -a 1 -x {0.0 3.0 49 ------- null}
h -t 8.34000000000001 -s 0 -d 2 -p cbr -e 1000 -c 1 -i 49 -a 1 -x {0.0 3.0 -1 ------- null}
r -t 8.3508 -s 0 -d 2 -p cbr -e 1000 -c 1 -i 49 -a 1 -x {0.0 3.0 49 ------- null}
+ -t 8.3508 -s 2 -d 3 -p cbr -e 1000 -c 1 -i 49 -a 1 -x {0.0 3.0 49 ------- null}
- -t 8.3508 -s 2 -d 3 -p cbr -e 1000 -c 1 -i 49 -a 1 -x {0.0 3.0 49 ------- null}
h -t 8.3508 -s 2 -d 3 -p cbr -e 1000 -c 1 -i 49 -a 1 -x {0.0 3.0 -1 ------- null}
r -t 8.3748 -s 2 -d 3 -p cbr -e 1000 -c 1 -i 49 -a 1 -x {0.0 3.0 49 ------- null}
+ -t 8.50000000000001 -s 0 -d 2 -p cbr -e 1000 -c 1 -i 50 -a 1 -x {0.0 3.0 50 ------- null}
- -t 8.50000000000001 -s 0 -d 2 -p cbr -e 1000 -c 1 -i 50 -a 1 -x {0.0 3.0 50 ------- null}
h -t 8.50000000000001 -s 0 -d 2 -p cbr -e 1000 -c 1 -i 50 -a 1 -x {0.0 3.0 -1 ------- null}
r -t 8.51080000000001 -s 0 -d 2 -p cbr -e 1000 -c 1 -i 50 -a 1 -x {0.0 3.0 50 ------- null}
+ -t 8.51080000000001 -s 2 -d 3 -p cbr -e 1000 -c 1 -i 50 -a 1 -x {0.0 3.0 50 ------- null}
- -t 8.51080000000001 -s 2 -d 3 -p cbr -e 1000 -c 1 -i 50 -a 1 -x {0.0 3.0 50 ------- null}
h -t 8.51080000000001 -s 2 -d 3 -p cbr -e 1000 -c 1 -i 50 -a 1 -x {0.0 3.0 -1 ------- null}