+ 1 0 2 cbr 1000 ------- 1 0.0 3.0 0 0
- 1 0 2 cbr 1000 ------- 1 0.0 3.0 0 0
r 1.0108 0 2 cbr 1000 ------- 1 0.0 3.0 0 0
+ 1.0108 2 3 cbr 1000 ------- 1 0.0 3.0 0 0
- 1.0108 2 3 cbr 1000 ------- 1 0.0 3.0 0 0
+ 1.016 0 2 cbr 1000 ------- 1 0.0 3.0 1 1
- 1.016 0 2 cbr 1000 ------- 1 0.0 3.0 1 1
r 1.0268 0 2 cbr 1000 ------- 1 0.0 3.0 1 1
+ 1.0268 2 3 cbr 1000 ------- 1 0.0 3.0 1 1
- 1.0268 2 3 cbr 1000 ------- 1 0.0 3.0 1 1
+ 1.032 0 2 cbr 1000 ------- 1 0.0 3.0 2 2
- 1.032 0 2 cbr 1000 ------- 1 0.0 3.0 2 2
r 1.0348 2 3 cbr 1000 ------- 1 0.0 3.0 0 0
r 1.0428 0 2 cbr 1000 ------- 1 0.0 3.0 2 2
+ 1.0428 2 3 cbr 1000 ------- 1 0.0 3.0 2 2
- 1.0428 2 3 cbr 1000 ------- 1 0.0 3.0 2 2
+ 1.048 0 2 cbr 1000 ------- 1 0.0 3.0 3 3
- 1.048 0 2 cbr 1000 ------- 1 0.0 3.0 3 3
r 1.0508 2 3 cbr 1000 ------- 1 0.0 3.0 1 1
r 1.0588 0 2 cbr 1000 ------- 1 0.0 3.0 3 3
+ 1.0588 2 3 cbr 1000 ------- 1 0.0 3.0 3 3
- 1.0588 2 3 cbr 1000 ------- 1 0.0 3.0 3 3
+ 1.064 0 2 cbr 1000 ------- 1 0.0 3.0 4 4
- 1.064 0 2 cbr 1000 ------- 1 0.0 3.0 4 4
r 1.0668 2 3 cbr 1000 ------- 1 0.0 3.0 2 2
r 1.0748 0 2 cbr 1000 ------- 1 0.0 3.0 4 4
+ 1.0748 2 3 cbr 1000 ------- 1 0.0 3.0 4 4
- 1.0748 2 3 cbr 1000 ------- 1 0.0 3.0 4 4
+ 1.08 0 2 cbr 1000 ------- 1 0.0 3.0 5 5
- 1.08 0 2 cbr 1000 ------- 1 0.0 3.0 5 5
r 1.0828 2 3 cbr 1000 ------- 1 0.0 3.0 3 3
r 1.0908 0 2 cbr 1000 ------- 1 0.0 3.0 5 5
+ 1.0908 2 3 cbr 1000 ------- 1 0.0 3.0 5 5
- 1.0908 2 3 cbr 1000 ------- 1 0.0 3.0 5 5
+ 1.096 0 2 cbr 1000 ------- 1 0.0 3.0 6 6
- 1.096 0 2 cbr 1000 ------- 1 0.0 3.0 6 6
r 1.0988 2 3 cbr 1000 ------- 1 0.0 3.0 4 4
r 1.1068 0 2 cbr 1000 ------- 1 0.0 3.0 6 6
+ 1.1068 2 3 cbr 1000 ------- 1 0.0 3.0 6 6
- 1.1068 2 3 cbr 1000 ------- 1 0.0 3.0 6 6
+ 1.112 0 2 cbr 1000 ------- 1 0.0 3.0 7 7
- 1.112 0 2 cbr 1000 ------- 1 0.0 3.0 7 7
r 1.1148 2 3 cbr 1000 ------- 1 0.0 3.0 5 5
r 1.1228 0 2 cbr 1000 ------- 1 0.0 3.0 7 7
+ 1.1228 2 3 cbr 1000 ------- 1 0.0 3.0 7 7
- 1.1228 2 3 cbr 1000 ------- 1 0.0 3.0 7 7
+ 1.128 0 2 cbr 1000 ------- 1 0.0 3.0 8 8
- 1.128 0 2 cbr 1000 ------- 1 0.0 3.0 8 8
r 1.1308 2 3 cbr 1000 ------- 1 0.0 3.0 6 6
r 1.1388 0 2 cbr 1000 ------- 1 0.0 3.0 8 8
+ 1.1388 2 3 cbr 1000 ------- 1 0.0 3.0 8 8
- 1.1388 2 3 cbr 1000 ------- 1 0.0 3.0 8 8
+ 1.144 0 2 cbr 1000 ------- 1 0.0 3.0 9 9
- 1.144 0 2 cbr 1000 ------- 1 0.0 3.0 9 9
r 1.1468 2 3 cbr 1000 ------- 1 0.0 3.0 7 7
r 1.1548 0 2 cbr 1000 ------- 1 0.0 3.0 9 9
+ 1.1548 2 3 cbr 1000 ------- 1 0.0 3.0 9 9
- 1.1548 2 3 cbr 1000 ------- 1 0.0 3.0 9 9
+ 1.16 0 2 cbr 1000 ------- 1 0.0 3.0 10 10
- 1.16 0 2 cbr 1000 ------- 1 0.0 3.0 10 10
r 1.1628 2 3 cbr 1000 ------- 1 0.0 3.0 8 8
r 1.1708 0 2 cbr 1000 ------- 1 0.0 3.0 10 10
+ 1.1708 2 3 cbr 1000 ------- 1 0.0 3.0 10 10
- 1.1708 2 3 cbr 1000 ------- 1 0.0 3.0 10 10
+ 1.176 0 2 cbr 1000 ------- 1 0.0 3.0 11 11
- 1.176 0 2 cbr 1000 ------- 1 0.0 3.0 11 11
r 1.1788 2 3 cbr 1000 ------- 1 0.0 3.0 9 9
r 1.1868 0 2 cbr 1000 ------- 1 0.0 3.0 11 11
+ 1.1868 2 3 cbr 1000 ------- 1 0.0 3.0 11 11
- 1.1868 2 3 cbr 1000 ------- 1 0.0 3.0 11 11
+ 1.192 0 2 cbr 1000 ------- 1 0.0 3.0 12 12
- 1.192 0 2 cbr 1000 ------- 1 0.0 3.0 12 12
r 1.1948 2 3 cbr 1000 ------- 1 0.0 3.0 10 10
r 1.2028 0 2 cbr 1000 ------- 1 0.0 3.0 12 12
+ 1.2028 2 3 cbr 1000 ------- 1 0.0 3.0 12 12
- 1.2028 2 3 cbr 1000 ------- 1 0.0 3.0 12 12
+ 1.208 0 2 cbr 1000 ------- 1 0.0 3.0 13 13
- 1.208 0 2 cbr 1000 ------- 1 0.0 3.0 13 13
r 1.2108 2 3 cbr 1000 ------- 1 0.0 3.0 11 11
r 1.2188 0 2 cbr 1000 ------- 1 0.0 3.0 13 13
+ 1.2188 2 3 cbr 1000 ------- 1 0.0 3.0 13 13
- 1.2188 2 3 cbr 1000 ------- 1 0.0 3.0 13 13
+ 1.224 0 2 cbr 1000 ------- 1 0.0 3.0 14 14
- 1.224 0 2 cbr 1000 ------- 1 0.0 3.0 14 14
r 1.2268 2 3 cbr 1000 ------- 1 0.0 3.0 12 12
r 1.2348 0 2 cbr 1000 ------- 1 0.0 3.0 14 14
+ 1.2348 2 3 cbr 1000 ------- 1 0.0 3.0 14 14
- 1.2348 2 3 cbr 1000 ------- 1 0.0 3.0 14 14
+ 1.24 0 2 cbr 1000 ------- 1 0.0 3.0 15 15
- 1.24 0 2 cbr 1000 ------- 1 0.0 3.0 15 15
r 1.2428 2 3 cbr 1000 ------- 1 0.0 3.0 13 13
r 1.2508 0 2 cbr 1000 ------- 1 0.0 3.0 15 15
+ 1.2508 2 3 cbr 1000 ------- 1 0.0 3.0 15 15
- 1.2508 2 3 cbr 1000 ------- 1 0.0 3.0 15 15
+ 1.256 0 2 cbr 1000 ------- 1 0.0 3.0 16 16
- 1.256 0 2 cbr 1000 ------- 1 0.0 3.0 16 16
r 1.2588 2 3 cbr 1000 ------- 1 0.0 3.0 14 14
r 1.2668 0 2 cbr 1000 ------- 1 0.0 3.0 16 16
+ 1.2668 2 3 cbr 1000 ------- 1 0.0 3.0 16 16
- 1.2668 2 3 cbr 1000 ------- 1 0.0 3.0 16 16
+ 1.272 0 2 cbr 1000 ------- 1 0.0 3.0 17 17
- 1.272 0 2 cbr 1000 ------- 1 0.0 3.0 17 17
r 1.2748 2 3 cbr 1000 ------- 1 0.0 3.0 15 15
r 1.2828 0 2 cbr 1000 ------- 1 0.0 3.0 17 17
+ 1.2828 2 3 cbr 1000 ------- 1 0.0 3.0 17 17
- 1.2828 2 3 cbr 1000 ------- 1 0.0 3.0 17 17
+ 1.288 0 2 cbr 1000 ------- 1 0.0 3.0 18 18
- 1.288 0 2 cbr 1000 ------- 1 0.0 3.0 18 18
r 1.2908 2 3 cbr 1000 ------- 1 0.0 3.0 16 16
r 1.2988 0 2 cbr 1000 ------- 1 0.0 3.0 18 18
+ 1.2988 2 3 cbr 1000 ------- 1 0.0 3.0 18 18
- 1.2988 2 3 cbr 1000 ------- 1 0.0 3.0 18 18
+ 1.304 0 2 cbr 1000 ------- 1 0.0 3.0 19 19
- 1.304 0 2 cbr 1000 ------- 1 0.0 3.0 19 19
r 1.3068 2 3 cbr 1000 ------- 1 0.0 3.0 17 17
r 1.3148 0 2 cbr 1000 ------- 1 0.0 3.0 19 19
+ 1.3148 2 3 cbr 1000 ------- 1 0.0 3.0 19 19
- 1.3148 2 3 cbr 1000 ------- 1 0.0 3.0 19 19
+ 1.32 0 2 cbr 1000 ------- 1 0.0 3.0 20 20
- 1.32 0 2 cbr 1000 ------- 1 0.0 3.0 20 20
r 1.3228 2 3 cbr 1000 ------- 1 0.0 3.0 18 18
r 1.3308 0 2 cbr 1000 ------- 1 0.0 3.0 20 20
+ 1.3308 2 3 cbr 1000 ------- 1 0.0 3.0 20 20
- 1.3308 2 3 cbr 1000 ------- 1 0.0 3.0 20 20
+ 1.336 0 2 cbr 1000 ------- 1 0.0 3.0 21 21
- 1.336 0 2 cbr 1000 ------- 1 0.0 3.0 21 21
r 1.3388 2 3 cbr 1000 ------- 1 0.0 3.0 19 19
r 1.3468 0 2 cbr 1000 ------- 1 0.0 3.0 21 21
+ 1.3468 2 3 cbr 1000 ------- 1 0.0 3.0 21 21
- 1.3468 2 3 cbr 1000 ------- 1 0.0 3.0 21 21
+ 1.352 0 2 cbr 1000 ------- 1 0.0 3.0 22 22
- 1.352 0 2 cbr 1000 ------- 1 0.0 3.0 22 22
r 1.3548 2 3 cbr 1000 ------- 1 0.0 3.0 20 20
r 1.3628 0 2 cbr 1000 ------- 1 0.0 3.0 22 22
+ 1.3628 2 3 cbr 1000 ------- 1 0.0 3.0 22 22
- 1.3628 2 3 cbr 1000 ------- 1 0.0 3.0 22 22
+ 1.368 0 2 cbr 1000 ------- 1 0.0 3.0 23 23
- 1.368 0 2 cbr 1000 ------- 1 0.0 3.0 23 23
r 1.3708 2 3 cbr 1000 ------- 1 0.0 3.0 21 21
r 1.3788 0 2 cbr 1000 ------- 1 0.0 3.0 23 23
+ 1.3788 2 3 cbr 1000 ------- 1 0.0 3.0 23 23
- 1.3788 2 3 cbr 1000 ------- 1 0.0 3.0 23 23
+ 1.384 0 2 cbr 1000 ------- 1 0.0 3.0 24 24
- 1.384 0 2 cbr 1000 ------- 1 0.0 3.0 24 24
r 1.3868 2 3 cbr 1000 ------- 1 0.0 3.0 22 22
r 1.3948 0 2 cbr 1000 ------- 1 0.0 3.0 24 24
+ 1.3948 2 3 cbr 1000 ------- 1 0.0 3.0 24 24
- 1.3948 2 3 cbr 1000 ------- 1 0.0 3.0 24 24
+ 1.4 0 2 cbr 1000 ------- 1 0.0 3.0 25 25
- 1.4 0 2 cbr 1000 ------- 1 0.0 3.0 25 25
r 1.4028 2 3 cbr 1000 ------- 1 0.0 3.0 23 23
r 1.4108 0 2 cbr 1000 ------- 1 0.0 3.0 25 25
+ 1.4108 2 3 cbr 1000 ------- 1 0.0 3.0 25 25
- 1.4108 2 3 cbr 1000 ------- 1 0.0 3.0 25 25
+ 1.416 0 2 cbr 1000 ------- 1 0.0 3.0 26 26
- 1.416 0 2 cbr 1000 ------- 1 0.0 3.0 26 26
r 1.4188 2 3 cbr 1000 ------- 1 0.0 3.0 24 24
r 1.4268 0 2 cbr 1000 ------- 1 0.0 3.0 26 26
+ 1.4268 2 3 cbr 1000 ------- 1 0.0 3.0 26 26
- 1.4268 2 3 cbr 1000 ------- 1 0.0 3.0 26 26
+ 1.432 0 2 cbr 1000 ------- 1 0.0 3.0 27 27
- 1.432 0 2 cbr 1000 ------- 1 0.0 3.0 27 27
r 1.4348 2 3 cbr 1000 ------- 1 0.0 3.0 25 25
r 1.4428 0 2 cbr 1000 ------- 1 0.0 3.0 27 27
+ 1.4428 2 3 cbr 1000 ------- 1 0.0 3.0 27 27
- 1.4428 2 3 cbr 1000 ------- 1 0.0 3.0 27 27
+ 1.448 0 2 cbr 1000 ------- 1 0.0 3.0 28 28
- 1.448 0 2 cbr 1000 ------- 1 0.0 3.0 28 28
r 1.4508 2 3 cbr 1000 ------- 1 0.0 3.0 26 26
r 1.4588 0 2 cbr 1000 ------- 1 0.0 3.0 28 28
+ 1.4588 2 3 cbr 1000 ------- 1 0.0 3.0 28 28
- 1.4588 2 3 cbr 1000 ------- 1 0.0 3.0 28 28
+ 1.464 0 2 cbr 1000 ------- 1 0.0 3.0 29 29
- 1.464 0 2 cbr 1000 ------- 1 0.0 3.0 29 29
r 1.4668 2 3 cbr 1000 ------- 1 0.0 3.0 27 27
r 1.4748 0 2 cbr 1000 ------- 1 0.0 3.0 29 29
+ 1.4748 2 3 cbr 1000 ------- 1 0.0 3.0 29 29
- 1.4748 2 3 cbr 1000 ------- 1 0.0 3.0 29 29
+ 1.48 0 2 cbr 1000 ------- 1 0.0 3.0 30 30
- 1.48 0 2 cbr 1000 ------- 1 0.0 3.0 30 30
r 1.4828 2 3 cbr 1000 ------- 1 0.0 3.0 28 28
r 1.4908 0 2 cbr 1000 ------- 1 0.0 3.0 30 30
+ 1.4908 2 3 cbr 1000 ------- 1 0.0 3.0 30 30
- 1.4908 2 3 cbr 1000 ------- 1 0.0 3.0 30 30
+ 1.496 0 2 cbr 1000 ------- 1 0.0 3.0 31 31
- 1.496 0 2 cbr 1000 ------- 1 0.0 3.0 31 31
r 1.4988 2 3 cbr 1000 ------- 1 0.0 3.0 29 29
r 1.5068 0 2 cbr 1000 ------- 1 0.0 3.0 31 31
+ 1.5068 2 3 cbr 1000 ------- 1 0.0 3.0 31 31
- 1.5068 2 3 cbr 1000 ------- 1 0.0 3.0 31 31
+ 1.512 0 2 cbr 1000 ------- 1 0.0 3.0 32 32
- 1.512 0 2 cbr 1000 ------- 1 0.0 3.0 32 32
r 1.5148 2 3 cbr 1000 ------- 1 0.0 3.0 30 30
r 1.5228 0 2 cbr 1000 ------- 1 0.0 3.0 32 32
+ 1.5228 2 3 cbr 1000 ------- 1 0.0 3.0 32 32
- 1.5228 2 3 cbr 1000 ------- 1 0.0 3.0 32 32
+ 1.528 0 2 cbr 1000 ------- 1 0.0 3.0 33 33
- 1.528 0 2 cbr 1000 ------- 1 0.0 3.0 33 33
r 1.5308 2 3 cbr 1000 ------- 1 0.0 3.0 31 31
r 1.5388 0 2 cbr 1000 ------- 1 0.0 3.0 33 33
+ 1.5388 2 3 cbr 1000 ------- 1 0.0 3.0 33 33
- 1.5388 2 3 cbr 1000 ------- 1 0.0 3.0 33 33
+ 1.544 0 2 cbr 1000 ------- 1 0.0 3.0 34 34
- 1.544 0 2 cbr 1000 ------- 1 0.0 3.0 34 34
r 1.5468 2 3 cbr 1000 ------- 1 0.0 3.0 32 32
r 1.5548 0 2 cbr 1000 ------- 1 0.0 3.0 34 34
+ 1.5548 2 3 cbr 1000 ------- 1 0.0 3.0 34 34
- 1.5548 2 3 cbr 1000 ------- 1 0.0 3.0 34 34
+ 1.56 0 2 cbr 1000 ------- 1 0.0 3.0 35 35
- 1.56 0 2 cbr 1000 ------- 1 0.0 3.0 35 35
r 1.5628 2 3 cbr 1000 ------- 1 0.0 3.0 33 33
r 1.5708 0 2 cbr 1000 ------- 1 0.0 3.0 35 35
+ 1.5708 2 3 cbr 1000 ------- 1 0.0 3.0 35 35
- 1.5708 2 3 cbr 1000 ------- 1 0.0 3.0 35 35
+ 1.576 0 2 cbr 1000 ------- 1 0.0 3.0 36 36
- 1.576 0 2 cbr 1000 ------- 1 0.0 3.0 36 36
r 1.5788 2 3 cbr 1000 ------- 1 0.0 3.0 34 34
r 1.5868 0 2 cbr 1000 ------- 1 0.0 3.0 36 36
+ 1.5868 2 3 cbr 1000 ------- 1 0.0 3.0 36 36
- 1.5868 2 3 cbr 1000 ------- 1 0.0 3.0 36 36
+ 1.592 0 2 cbr 1000 ------- 1 0.0 3.0 37 37
- 1.592 0 2 cbr 1000 ------- 1 0.0 3.0 37 37
r 1.5948 2 3 cbr 1000 ------- 1 0.0 3.0 35 35
r 1.6028 0 2 cbr 1000 ------- 1 0.0 3.0 37 37
+ 1.6028 2 3 cbr 1000 ------- 1 0.0 3.0 37 37
- 1.6028 2 3 cbr 1000 ------- 1 0.0 3.0 37 37
+ 1.608 0 2 cbr 1000 ------- 1 0.0 3.0 38 38
- 1.608 0 2 cbr 1000 ------- 1 0.0 3.0 38 38
r 1.6108 2 3 cbr 1000 ------- 1 0.0 3.0 36 36
r 1.6188 0 2 cbr 1000 ------- 1 0.0 3.0 38 38
+ 1.6188 2 3 cbr 1000 ------- 1 0.0 3.0 38 38
- 1.6188 2 3 cbr 1000 ------- 1 0.0 3.0 38 38
+ 1.624 0 2 cbr 1000 ------- 1 0.0 3.0 39 39
- 1.624 0 2 cbr 1000 ------- 1 0.0 3.0 39 39
r 1.6268 2 3 cbr 1000 ------- 1 0.0 3.0 37 37
r 1.6348 0 2 cbr 1000 ------- 1 0.0 3.0 39 39
+ 1.6348 2 3 cbr 1000 ------- 1 0.0 3.0 39 39
- 1.6348 2 3 cbr 1000 ------- 1 0.0 3.0 39 39
+ 1.64 0 2 cbr 1000 ------- 1 0.0 3.0 40 40
- 1.64 0 2 cbr 1000 ------- 1 0.0 3.0 40 40
r 1.6428 2 3 cbr 1000 ------- 1 0.0 3.0 38 38
r 1.6508 0 2 cbr 1000 ------- 1 0.0 3.0 40 40
+ 1.6508 2 3 cbr 1000 ------- 1 0.0 3.0 40 40
- 1.6508 2 3 cbr 1000 ------- 1 0.0 3.0 40 40
+ 1.656 0 2 cbr 1000 ------- 1 0.0 3.0 41 41
- 1.656 0 2 cbr 1000 ------- 1 0.0 3.0 41 41
r 1.6588 2 3 cbr 1000 ------- 1 0.0 3.0 39 39
r 1.6668 0 2 cbr 1000 ------- 1 0.0 3.0 41 41
+ 1.6668 2 3 cbr 1000 ------- 1 0.0 3.0 41 41
- 1.6668 2 3 cbr 1000 ------- 1 0.0 3.0 41 41
+ 1.672 0 2 cbr 1000 ------- 1 0.0 3.0 42 42
- 1.672 0 2 cbr 1000 ------- 1 0.0 3.0 42 42
r 1.6748 2 3 cbr 1000 ------- 1 0.0 3.0 40 40
r 1.6828 0 2 cbr 1000 ------- 1 0.0 3.0 42 42
+ 1.6828 2 3 cbr 1000 ------- 1 0.0 3.0 42 42
- 1.6828 2 3 cbr 1000 ------- 1 0.0 3.0 42 42
+ 1.688 0 2 cbr 1000 ------- 1 0.0 3.0 43 43
- 1.688 0 2 cbr 1000 ------- 1 0.0 3.0 43 43
r 1.6908 2 3 cbr 1000 ------- 1 0.0 3.0 41 41
r 1.6988 0 2 cbr 1000 ------- 1 0.0 3.0 43 43
+ 1.6988 2 3 cbr 1000 ------- 1 0.0 3.0 43 43
- 1.6988 2 3 cbr 1000 ------- 1 0.0 3.0 43 43
+ 1.704 0 2 cbr 1000 ------- 1 0.0 3.0 44 44
- 1.704 0 2 cbr 1000 ------- 1 0.0 3.0 44 44
r 1.7068 2 3 cbr 1000 ------- 1 0.0 3.0 42 42
r 1.7148 0 2 cbr 1000 ------- 1 0.0 3.0 44 44
+ 1.7148 2 3 cbr 1000 ------- 1 0.0 3.0 44 44
- 1.7148 2 3 cbr 1000 ------- 1 0.0 3.0 44 44
+ 1.72 0 2 cbr 1000 ------- 1 0.0 3.0 45 45
- 1.72 0 2 cbr 1000 ------- 1 0.0 3.0 45 45
r 1.7228 2 3 cbr 1000 ------- 1 0.0 3.0 43 43
r 1.7308 0 2 cbr 1000 ------- 1 0.0 3.0 45 45
+ 1.7308 2 3 cbr 1000 ------- 1 0.0 3.0 45 45
- 1.7308 2 3 cbr 1000 ------- 1 0.0 3.0 45 45
+ 1.736 0 2 cbr 1000 ------- 1 0.0 3.0 46 46
- 1.736 0 2 cbr 1000 ------- 1 0.0 3.0 46 46
r 1.7388 2 3 cbr 1000 ------- 1 0.0 3.0 44 44
r 1.7468 0 2 cbr 1000 ------- 1 0.0 3.0 46 46
+ 1.7468 2 3 cbr 1000 ------- 1 0.0 3.0 46 46
- 1.7468 2 3 cbr 1000 ------- 1 0.0 3.0 46 46
+ 1.752 0 2 cbr 1000 ------- 1 0.0 3.0 47 47
- 1.752 0 2 cbr 1000 ------- 1 0.0 3.0 47 47
r 1.7548 2 3 cbr 1000 ------- 1 0.0 3.0 45 45
r 1.7628 0 2 cbr 1000 ------- 1 0.0 3.0 47 47
+ 1.7628 2 3 cbr 1000 ------- 1 0.0 3.0 47 47
- 1.7628 2 3 cbr 1000 ------- 1 0.0 3.0 47 47
+ 1.768 0 2 cbr 1000 ------- 1 0.0 3.0 48 48
- 1.768 0 2 cbr 1000 ------- 1 0.0 3.0 48 48
r 1.7708 2 3 cbr 1000 ------- 1 0.0 3.0 46 46
r 1.7788 0 2 cbr 1000 ------- 1 0.0 3.0 48 48
+ 1.7788 2 3 cbr 1000 ------- 1 0.0 3.0 48 48
- 1.7788 2 3 cbr 1000 ------- 1 0.0 3.0 48 48
+ 1.784 0 2 cbr 1000 ------- 1 0.0 3.0 49 49
- 1.784 0 2 cbr 1000 ------- 1 0.0 3.0 49 49
r 1.7868 2 3 cbr 1000 ------- 1 0.0 3.0 47 47
r 1.7948 0 2 cbr 1000 ------- 1 0.0 3.0 49 49
+ 1.7948 2 3 cbr 1000 ------- 1 0.0 3.0 49 49
- 1.7948 2 3 cbr 1000 ------- 1 0.0 3.0 49 49
+ 1.8 0 2 cbr 1000 ------- 1 0.0 3.0 50 50
- 1.8 0 2 cbr 1000 ------- 1 0.0 3.0 50 50
r 1.8028 2 3 cbr 1000 ------- 1 0.0 3.0 48 48
r 1.8108 0 2 cbr 1000 ------- 1 0.0 3.0 50 50
+ 1.8108 2 3 cbr 1000 ------- 1 0.0 3.0 50 50
- 1.8108 2 3 cbr 1000 ------- 1 0.0 3.0 50 50
+ 1.816 0 2 cbr 1000 ------- 1 0.0 3.0 51 51
- 1.816 0 2 cbr 1000 ------- 1 0.0 3.0 51 51
r 1.8188 2 3 cbr 1000 ------- 1 0.0 3.0 49 49
r 1.8268 0 2 cbr 1000 ------- 1 0.0 3.0 51 51
+ 1.8268 2 3 cbr 1000 ------- 1 0.0 3.0 51 51
- 1.8268 2 3 cbr 1000 ------- 1 0.0 3.0 51 51
+ 1.832 0 2 cbr 1000 ------- 1 0.0 3.0 52 52
- 1.832 0 2 cbr 1000 ------- 1 0.0 3.0 52 52
r 1.8348 2 3 cbr 1000 ------- 1 0.0 3.0 50 50
r 1.8428 0 2 cbr 1000 ------- 1 0.0 3.0 52 52
+ 1.8428 2 3 cbr 1000 ------- 1 0.0 3.0 52 52
- 1.8428 2 3 cbr 1000 ------- 1 0.0 3.0 52 52
+ 1.848 0 2 cbr 1000 ------- 1 0.0 3.0 53 53
- 1.848 0 2 cbr 1000 ------- 1 0.0 3.0 53 53
r 1.8508 2 3 cbr 1000 ------- 1 0.0 3.0 51 51
r 1.8588 0 2 cbr 1000 ------- 1 0.0 3.0 53 53
+ 1.8588 2 3 cbr 1000 ------- 1 0.0 3.0 53 53
- 1.8588 2 3 cbr 1000 ------- 1 0.0 3.0 53 53
+ 1.864 0 2 cbr 1000 ------- 1 0.0 3.0 54 54
- 1.864 0 2 cbr 1000 ------- 1 0.0 3.0 54 54
r 1.8668 2 3 cbr 1000 ------- 1 0.0 3.0 52 52
r 1.8748 0 2 cbr 1000 ------- 1 0.0 3.0 54 54
+ 1.8748 2 3 cbr 1000 ------- 1 0.0 3.0 54 54
- 1.8748 2 3 cbr 1000 ------- 1 0.0 3.0 54 54
+ 1.88 0 2 cbr 1000 ------- 1 0.0 3.0 55 55
- 1.88 0 2 cbr 1000 ------- 1 0.0 3.0 55 55
r 1.8828 2 3 cbr 1000 ------- 1 0.0 3.0 53 53
r 1.8908 0 2 cbr 1000 ------- 1 0.0 3.0 55 55
+ 1.8908 2 3 cbr 1000 ------- 1 0.0 3.0 55 55
- 1.8908 2 3 cbr 1000 ------- 1 0.0 3.0 55 55
+ 1.896 0 2 cbr 1000 ------- 1 0.0 3.0 56 56
- 1.896 0 2 cbr 1000 ------- 1 0.0 3.0 56 56
r 1.8988 2 3 cbr 1000 ------- 1 0.0 3.0 54 54
r 1.9068 0 2 cbr 1000 ------- 1 0.0 3.0 56 56
+ 1.9068 2 3 cbr 1000 ------- 1 0.0 3.0 56 56
- 1.9068 2 3 cbr 1000 ------- 1 0.0 3.0 56 56
+ 1.912 0 2 cbr 1000 ------- 1 0.0 3.0 57 57
- 1.912 0 2 cbr 1000 ------- 1 0.0 3.0 57 57
r 1.9148 2 3 cbr 1000 ------- 1 0.0 3.0 55 55
r 1.9228 0 2 cbr 1000 ------- 1 0.0 3.0 57 57
+ 1.9228 2 3 cbr 1000 ------- 1 0.0 3.0 57 57
- 1.9228 2 3 cbr 1000 ------- 1 0.0 3.0 57 57
+ 1.928 0 2 cbr 1000 ------- 1 0.0 3.0 58 58
- 1.928 0 2 cbr 1000 ------- 1 0.0 3.0 58 58
r 1.9308 2 3 cbr 1000 ------- 1 0.0 3.0 56 56
r 1.9388 0 2 cbr 1000 ------- 1 0.0 3.0 58 58
+ 1.9388 2 3 cbr 1000 ------- 1 0.0 3.0 58 58
- 1.9388 2 3 cbr 1000 ------- 1 0.0 3.0 58 58
+ 1.944 0 2 cbr 1000 ------- 1 0.0 3.0 59 59
- 1.944 0 2 cbr 1000 ------- 1 0.0 3.0 59 59
r 1.9468 2 3 cbr 1000 ------- 1 0.0 3.0 57 57
r 1.9548 0 2 cbr 1000 ------- 1 0.0 3.0 59 59
+ 1.9548 2 3 cbr 1000 ------- 1 0.0 3.0 59 59
- 1.9548 2 3 cbr 1000 ------- 1 0.0 3.0 59 59
+ 1.96 0 2 cbr 1000 ------- 1 0.0 3.0 60 60
- 1.96 0 2 cbr 1000 ------- 1 0.0 3.0 60 60
r 1.9628 2 3 cbr 1000 ------- 1 0.0 3.0 58 58
r 1.9708 0 2 cbr 1000 ------- 1 0.0 3.0 60 60
+ 1.9708 2 3 cbr 1000 ------- 1 0.0 3.0 60 60
- 1.9708 2 3 cbr 1000 ------- 1 0.0 3.0 60 60
+ 1.976 0 2 cbr 1000 ------- 1 0.0 3.0 61 61
- 1.976 0 2 cbr 1000 ------- 1 0.0 3.0 61 61
r 1.9788 2 3 cbr 1000 ------- 1 0.0 3.0 59 59
r 1.9868 0 2 cbr 1000 ------- 1 0.0 3.0 61 61
+ 1.9868 2 3 cbr 1000 ------- 1 0.0 3.0 61 61
- 1.9868 2 3 cbr 1000 ------- 1 0.0 3.0 61 61
+ 1.992 0 2 cbr 1000 ------- 1 0.0 3.0 62 62
- 1.992 0 2 cbr 1000 ------- 1 0.0 3.0 62 62
r 1.9948 2 3 cbr 1000 ------- 1 0.0 3.0 60 60
r 2.0028 0 2 cbr 1000 ------- 1 0.0 3.0 62 62
+ 2.0028 2 3 cbr 1000 ------- 1 0.0 3.0 62 62
- 2.0028 2 3 cbr 1000 ------- 1 0.0 3.0 62 62
+ 2.008 0 2 cbr 1000 ------- 1 0.0 3.0 63 63
- 2.008 0 2 cbr 1000 ------- 1 0.0 3.0 63 63
r 2.0108 2 3 cbr 1000 ------- 1 0.0 3.0 61 61
r 2.0188 0 2 cbr 1000 ------- 1 0.0 3.0 63 63
+ 2.0188 2 3 cbr 1000 ------- 1 0.0 3.0 63 63
- 2.0188 2 3 cbr 1000 ------- 1 0.0 3.0 63 63
+ 2.024 0 2 cbr 1000 ------- 1 0.0 3.0 64 64
- 2.024 0 2 cbr 1000 ------- 1 0.0 3.0 64 64
r 2.0268 2 3 cbr 1000 ------- 1 0.0 3.0 62 62
r 2.0348 0 2 cbr 1000 ------- 1 0.0 3.0 64 64
+ 2.0348 2 3 cbr 1000 ------- 1 0.0 3.0 64 64
- 2.0348 2 3 cbr 1000 ------- 1 0.0 3.0 64 64
+ 2.04 0 2 cbr 1000 ------- 1 0.0 3.0 65 65
- 2.04 0 2 cbr 1000 ------- 1 0.0 3.0 65 65
r 2.0428 2 3 cbr 1000 ------- 1 0.0 3.0 63 63
r 2.0508 0 2 cbr 1000 ------- 1 0.0 3.0 65 65
+ 2.0508 2 3 cbr 1000 ------- 1 0.0 3.0 65 65
- 2.0508 2 3 cbr 1000 ------- 1 0.0 3.0 65 65
+ 2.056 0 2 cbr 1000 ------- 1 0.0 3.0 66 66
- 2.056 0 2 cbr 1000 ------- 1 0.0 3.0 66 66
r 2.0588 2 3 cbr 1000 ------- 1 0.0 3.0 64 64
r 2.0668 0 2 cbr 1000 ------- 1 0.0 3.0 66 66
+ 2.0668 2 3 cbr 1000 ------- 1 0.0 3.0 66 66
- 2.0668 2 3 cbr 1000 ------- 1 0.0 3.0 66 66
+ 2.072 0 2 cbr 1000 ------- 1 0.0 3.0 67 67
- 2.072 0 2 cbr 1000 ------- 1 0.0 3.0 67 67
r 2.0748 2 3 cbr 1000 ------- 1 0.0 3.0 65 65
r 2.0828 0 2 cbr 1000 ------- 1 0.0 3.0 67 67
+ 2.0828 2 3 cbr 1000 ------- 1 0.0 3.0 67 67
- 2.0828 2 3 cbr 1000 ------- 1 0.0 3.0 67 67
+ 2.088 0 2 cbr 1000 ------- 1 0.0 3.0 68 68
- 2.088 0 2 cbr 1000 ------- 1 0.0 3.0 68 68
r 2.0908 2 3 cbr 1000 ------- 1 0.0 3.0 66 66
r 2.0988 0 2 cbr 1000 ------- 1 0.0 3.0 68 68
+ 2.0988 2 3 cbr 1000 ------- 1 0.0 3.0 68 68
- 2.0988 2 3 cbr 1000 ------- 1 0.0 3.0 68 68
+ 2.104 0 2 cbr 1000 ------- 1 0.0 3.0 69 69
- 2.104 0 2 cbr 1000 ------- 1 0.0 3.0 69 69
r 2.1068 2 3 cbr 1000 ------- 1 0.0 3.0 67 67
r 2.1148 0 2 cbr 1000 ------- 1 0.0 3.0 69 69
+ 2.1148 2 3 cbr 1000 ------- 1 0.0 3.0 69 69
- 2.1148 2 3 cbr 1000 ------- 1 0.0 3.0 69 69
+ 2.12 0 2 cbr 1000 ------- 1 0.0 3.0 70 70
- 2.12 0 2 cbr 1000 ------- 1 0.0 3.0 70 70
r 2.1228 2 3 cbr 1000 ------- 1 0.0 3.0 68 68
r 2.1308 0 2 cbr 1000 ------- 1 0.0 3.0 70 70
+ 2.1308 2 3 cbr 1000 ------- 1 0.0 3.0 70 70
- 2.1308 2 3 cbr 1000 ------- 1 0.0 3.0 70 70
+ 2.136 0 2 cbr 1000 ------- 1 0.0 3.0 71 71
- 2.136 0 2 cbr 1000 ------- 1 0.0 3.0 71 71
r 2.1388 2 3 cbr 1000 ------- 1 0.0 3.0 69 69
r 2.1468 0 2 cbr 1000 ------- 1 0.0 3.0 71 71
+ 2.1468 2 3 cbr 1000 ------- 1 0.0 3.0 71 71
- 2.1468 2 3 cbr 1000 ------- 1 0.0 3.0 71 71
+ 2.152 0 2 cbr 1000 ------- 1 0.0 3.0 72 72
- 2.152 0 2 cbr 1000 ------- 1 0.0 3.0 72 72
r 2.1548 2 3 cbr 1000 ------- 1 0.0 3.0 70 70
r 2.1628 0 2 cbr 1000 ------- 1 0.0 3.0 72 72
+ 2.1628 2 3 cbr 1000 ------- 1 0.0 3.0 72 72
- 2.1628 2 3 cbr 1000 ------- 1 0.0 3.0 72 72
+ 2.168 0 2 cbr 1000 ------- 1 0.0 3.0 73 73
- 2.168 0 2 cbr 1000 ------- 1 0.0 3.0 73 73
r 2.1708 2 3 cbr 1000 ------- 1 0.0 3.0 71 71
r 2.1788 0 2 cbr 1000 ------- 1 0.0 3.0 73 73
+ 2.1788 2 3 cbr 1000 ------- 1 0.0 3.0 73 73
- 2.1788 2 3 cbr 1000 ------- 1 0.0 3.0 73 73
+ 2.184 0 2 cbr 1000 ------- 1 0.0 3.0 74 74
- 2.184 0 2 cbr 1000 ------- 1 0.0 3.0 74 74
r 2.1868 2 3 cbr 1000 ------- 1 0.0 3.0 72 72
r 2.1948 0 2 cbr 1000 ------- 1 0.0 3.0 74 74
+ 2.1948 2 3 cbr 1000 ------- 1 0.0 3.0 74 74
- 2.1948 2 3 cbr 1000 ------- 1 0.0 3.0 74 74
+ 2.2 0 2 cbr 1000 ------- 1 0.0 3.0 75 75
- 2.2 0 2 cbr 1000 ------- 1 0.0 3.0 75 75
r 2.2028 2 3 cbr 1000 ------- 1 0.0 3.0 73 73
r 2.2108 0 2 cbr 1000 ------- 1 0.0 3.0 75 75
+ 2.2108 2 3 cbr 1000 ------- 1 0.0 3.0 75 75
- 2.2108 2 3 cbr 1000 ------- 1 0.0 3.0 75 75
+ 2.216 0 2 cbr 1000 ------- 1 0.0 3.0 76 76
- 2.216 0 2 cbr 1000 ------- 1 0.0 3.0 76 76
r 2.2188 2 3 cbr 1000 ------- 1 0.0 3.0 74 74
r 2.2268 0 2 cbr 1000 ------- 1 0.0 3.0 76 76
+ 2.2268 2 3 cbr 1000 ------- 1 0.0 3.0 76 76
- 2.2268 2 3 cbr 1000 ------- 1 0.0 3.0 76 76
+ 2.232 0 2 cbr 1000 ------- 1 0.0 3.0 77 77
- 2.232 0 2 cbr 1000 ------- 1 0.0 3.0 77 77
r 2.2348 2 3 cbr 1000 ------- 1 0.0 3.0 75 75
r 2.2428 0 2 cbr 1000 ------- 1 0.0 3.0 77 77
+ 2.2428 2 3 cbr 1000 ------- 1 0.0 3.0 77 77
- 2.2428 2 3 cbr 1000 ------- 1 0.0 3.0 77 77
+ 2.248 0 2 cbr 1000 ------- 1 0.0 3.0 78 78
- 2.248 0 2 cbr 1000 ------- 1 0.0 3.0 78 78
r 2.2508 2 3 cbr 1000 ------- 1 0.0 3.0 76 76
r 2.2588 0 2 cbr 1000 ------- 1 0.0 3.0 78 78
+ 2.2588 2 3 cbr 1000 ------- 1 0.0 3.0 78 78
- 2.2588 2 3 cbr 1000 ------- 1 0.0 3.0 78 78
+ 2.264 0 2 cbr 1000 ------- 1 0.0 3.0 79 79
- 2.264 0 2 cbr 1000 ------- 1 0.0 3.0 79 79
r 2.2668 2 3 cbr 1000 ------- 1 0.0 3.0 77 77
r 2.2748 0 2 cbr 1000 ------- 1 0.0 3.0 79 79
+ 2.2748 2 3 cbr 1000 ------- 1 0.0 3.0 79 79
- 2.2748 2 3 cbr 1000 ------- 1 0.0 3.0 79 79
+ 2.28 0 2 cbr 1000 ------- 1 0.0 3.0 80 80
- 2.28 0 2 cbr 1000 ------- 1 0.0 3.0 80 80
r 2.2828 2 3 cbr 1000 ------- 1 0.0 3.0 78 78
r 2.2908 0 2 cbr 1000 ------- 1 0.0 3.0 80 80
+ 2.2908 2 3 cbr 1000 ------- 1 0.0 3.0 80 80
- 2.2908 2 3 cbr 1000 ------- 1 0.0 3.0 80 80
+ 2.296 0 2 cbr 1000 ------- 1 0.0 3.0 81 81
- 2.296 0 2 cbr 1000 ------- 1 0.0 3.0 81 81
r 2.2988 2 3 cbr 1000 ------- 1 0.0 3.0 79 79
r 2.3068 0 2 cbr 1000 ------- 1 0.0 3.0 81 81
+ 2.3068 2 3 cbr 1000 ------- 1 0.0 3.0 81 81
- 2.3068 2 3 cbr 1000 ------- 1 0.0 3.0 81 81
+ 2.312 0 2 cbr 1000 ------- 1 0.0 3.0 82 82
- 2.312 0 2 cbr 1000 ------- 1 0.0 3.0 82 82
r 2.3148 2 3 cbr 1000 ------- 1 0.0 3.0 80 80
r 2.3228 0 2 cbr 1000 ------- 1 0.0 3.0 82 82
+ 2.3228 2 3 cbr 1000 ------- 1 0.0 3.0 82 82
- 2.3228 2 3 cbr 1000 ------- 1 0.0 3.0 82 82
+ 2.328 0 2 cbr 1000 ------- 1 0.0 3.0 83 83
- 2.328 0 2 cbr 1000 ------- 1 0.0 3.0 83 83
r 2.3308 2 3 cbr 1000 ------- 1 0.0 3.0 81 81
r 2.3388 0 2 cbr 1000 ------- 1 0.0 3.0 83 83
+ 2.3388 2 3 cbr 1000 ------- 1 0.0 3.0 83 83
- 2.3388 2 3 cbr 1000 ------- 1 0.0 3.0 83 83
+ 2.344 0 2 cbr 1000 ------- 1 0.0 3.0 84 84
- 2.344 0 2 cbr 1000 ------- 1 0.0 3.0 84 84
r 2.3468 2 3 cbr 1000 ------- 1 0.0 3.0 82 82
r 2.3548 0 2 cbr 1000 ------- 1 0.0 3.0 84 84
+ 2.3548 2 3 cbr 1000 ------- 1 0.0 3.0 84 84
- 2.3548 2 3 cbr 1000 ------- 1 0.0 3.0 84 84
+ 2.36 0 2 cbr 1000 ------- 1 0.0 3.0 85 85
- 2.36 0 2 cbr 1000 ------- 1 0.0 3.0 85 85
r 2.3628 2 3 cbr 1000 ------- 1 0.0 3.0 83 83
r 2.3708 0 2 cbr 1000 ------- 1 0.0 3.0 85 85
+ 2.3708 2 3 cbr 1000 ------- 1 0.0 3.0 85 85
- 2.3708 2 3 cbr 1000 ------- 1 0.0 3.0 85 85
+ 2.376 0 2 cbr 1000 ------- 1 0.0 3.0 86 86
- 2.376 0 2 cbr 1000 ------- 1 0.0 3.0 86 86
r 2.3788 2 3 cbr 1000 ------- 1 0.0 3.0 84 84
r 2.3868 0 2 cbr 1000 ------- 1 0.0 3.0 86 86
+ 2.3868 2 3 cbr 1000 ------- 1 0.0 3.0 86 86
- 2.3868 2 3 cbr 1000 ------- 1 0.0 3.0 86 86
+ 2.392 0 2 cbr 1000 ------- 1 0.0 3.0 87 87
- 2.392 0 2 cbr 1000 ------- 1 0.0 3.0 87 87
r 2.3948 2 3 cbr 1000 ------- 1 0.0 3.0 85 85
r 2.4028 0 2 cbr 1000 ------- 1 0.0 3.0 87 87
+ 2.4028 2 3 cbr 1000 ------- 1 0.0 3.0 87 87
- 2.4028 2 3 cbr 1000 ------- 1 0.0 3.0 87 87
+ 2.408 0 2 cbr 1000 ------- 1 0.0 3.0 88 88
- 2.408 0 2 cbr 1000 ------- 1 0.0 3.0 88 88
r 2.4108 2 3 cbr 1000 ------- 1 0.0 3.0 86 86
r 2.4188 0 2 cbr 1000 ------- 1 0.0 3.0 88 88
+ 2.4188 2 3 cbr 1000 ------- 1 0.0 3.0 88 88
- 2.4188 2 3 cbr 1000 ------- 1 0.0 3.0 88 88
+ 2.424 0 2 cbr 1000 ------- 1 0.0 3.0 89 89
- 2.424 0 2 cbr 1000 ------- 1 0.0 3.0 89 89
r 2.4268 2 3 cbr 1000 ------- 1 0.0 3.0 87 87
r 2.4348 0 2 cbr 1000 ------- 1 0.0 3.0 89 89
+ 2.4348 2 3 cbr 1000 ------- 1 0.0 3.0 89 89
- 2.4348 2 3 cbr 1000 ------- 1 0.0 3.0 89 89
+ 2.44 0 2 cbr 1000 ------- 1 0.0 3.0 90 90
- 2.44 0 2 cbr 1000 ------- 1 0.0 3.0 90 90
r 2.4428 2 3 cbr 1000 ------- 1 0.0 3.0 88 88
r 2.4508 0 2 cbr 1000 ------- 1 0.0 3.0 90 90
+ 2.4508 2 3 cbr 1000 ------- 1 0.0 3.0 90 90
- 2.4508 2 3 cbr 1000 ------- 1 0.0 3.0 90 90
+ 2.456 0 2 cbr 1000 ------- 1 0.0 3.0 91 91
- 2.456 0 2 cbr 1000 ------- 1 0.0 3.0 91 91
r 2.4588 2 3 cbr 1000 ------- 1 0.0 3.0 89 89
r 2.4668 0 2 cbr 1000 ------- 1 0.0 3.0 91 91
+ 2.4668 2 3 cbr 1000 ------- 1 0.0 3.0 91 91
- 2.4668 2 3 cbr 1000 ------- 1 0.0 3.0 91 91
+ 2.472 0 2 cbr 1000 ------- 1 0.0 3.0 92 92
- 2.472 0 2 cbr 1000 ------- 1 0.0 3.0 92 92
r 2.4748 2 3 cbr 1000 ------- 1 0.0 3.0 90 90
r 2.4828 0 2 cbr 1000 ------- 1 0.0 3.0 92 92
+ 2.4828 2 3 cbr 1000 ------- 1 0.0 3.0 92 92
- 2.4828 2 3 cbr 1000 ------- 1 0.0 3.0 92 92
+ 2.488 0 2 cbr 1000 ------- 1 0.0 3.0 93 93
- 2.488 0 2 cbr 1000 ------- 1 0.0 3.0 93 93
r 2.4908 2 3 cbr 1000 ------- 1 0.0 3.0 91 91
r 2.4988 0 2 cbr 1000 ------- 1 0.0 3.0 93 93
+ 2.4988 2 3 cbr 1000 ------- 1 0.0 3.0 93 93
- 2.4988 2 3 cbr 1000 ------- 1 0.0 3.0 93 93
+ 2.504 0 2 cbr 1000 ------- 1 0.0 3.0 94 94
- 2.504 0 2 cbr 1000 ------- 1 0.0 3.0 94 94
r 2.5068 2 3 cbr 1000 ------- 1 0.0 3.0 92 92
r 2.5148 0 2 cbr 1000 ------- 1 0.0 3.0 94 94
+ 2.5148 2 3 cbr 1000 ------- 1 0.0 3.0 94 94
- 2.5148 2 3 cbr 1000 ------- 1 0.0 3.0 94 94
+ 2.52 0 2 cbr 1000 ------- 1 0.0 3.0 95 95
- 2.52 0 2 cbr 1000 ------- 1 0.0 3.0 95 95
r 2.5228 2 3 cbr 1000 ------- 1 0.0 3.0 93 93
r 2.5308 0 2 cbr 1000 ------- 1 0.0 3.0 95 95
+ 2.5308 2 3 cbr 1000 ------- 1 0.0 3.0 95 95
- 2.5308 2 3 cbr 1000 ------- 1 0.0 3.0 95 95
+ 2.536 0 2 cbr 1000 ------- 1 0.0 3.0 96 96
- 2.536 0 2 cbr 1000 ------- 1 0.0 3.0 96 96
r 2.5388 2 3 cbr 1000 ------- 1 0.0 3.0 94 94
r 2.5468 0 2 cbr 1000 ------- 1 0.0 3.0 96 96
+ 2.5468 2 3 cbr 1000 ------- 1 0.0 3.0 96 96
- 2.5468 2 3 cbr 1000 ------- 1 0.0 3.0 96 96
+ 2.552 0 2 cbr 1000 ------- 1 0.0 3.0 97 97
- 2.552 0 2 cbr 1000 ------- 1 0.0 3.0 97 97
r 2.5548 2 3 cbr 1000 ------- 1 0.0 3.0 95 95
r 2.5628 0 2 cbr 1000 ------- 1 0.0 3.0 97 97
+ 2.5628 2 3 cbr 1000 ------- 1 0.0 3.0 97 97
- 2.5628 2 3 cbr 1000 ------- 1 0.0 3.0 97 97
+ 2.568 0 2 cbr 1000 ------- 1 0.0 3.0 98 98
- 2.568 0 2 cbr 1000 ------- 1 0.0 3.0 98 98
r 2.5708 2 3 cbr 1000 ------- 1 0.0 3.0 96 96
r 2.5788 0 2 cbr 1000 ------- 1 0.0 3.0 98 98
+ 2.5788 2 3 cbr 1000 ------- 1 0.0 3.0 98 98
- 2.5788 2 3 cbr 1000 ------- 1 0.0 3.0 98 98
+ 2.584 0 2 cbr 1000 ------- 1 0.0 3.0 99 99
- 2.584 0 2 cbr 1000 ------- 1 0.0 3.0 99 99
r 2.5868 2 3 cbr 1000 ------- 1 0.0 3.0 97 97
r 2.5948 0 2 cbr 1000 ------- 1 0.0 3.0 99 99
+ 2.5948 2 3 cbr 1000 ------- 1 0.0 3.0 99 99
- 2.5948 2 3 cbr 1000 ------- 1 0.0 3.0 99 99
+ 2.6 0 2 cbr 1000 ------- 1 0.0 3.0 100 100
- 2.6 0 2 cbr 1000 ------- 1 0.0 3.0 100 100
r 2.6028 2 3 cbr 1000 ------- 1 0.0 3.0 98 98
r 2.6108 0 2 cbr 1000 ------- 1 0.0 3.0 100 100
+ 2.6108 2 3 cbr 1000 ------- 1 0.0 3.0 100 100
- 2.6108 2 3 cbr 1000 ------- 1 0.0 3.0 100 100
+ 2.616 0 2 cbr 1000 ------- 1 0.0 3.0 101 101
- 2.616 0 2 cbr 1000 ------- 1 0.0 3.0 101 101
r 2.6188 2 3 cbr 1000 ------- 1 0.0 3.0 99 99
r 2.6268 0 2 cbr 1000 ------- 1 0.0 3.0 101 101
+ 2.6268 2 3 cbr 1000 ------- 1 0.0 3.0 101 101
- 2.6268 2 3 cbr 1000 ------- 1 0.0 3.0 101 101
+ 2.632 0 2 cbr 1000 ------- 1 0.0 3.0 102 102
- 2.632 0 2 cbr 1000 ------- 1 0.0 3.0 102 102
r 2.6348 2 3 cbr 1000 ------- 1 0.0 3.0 100 100
r 2.6428 0 2 cbr 1000 ------- 1 0.0 3.0 102 102
+ 2.6428 2 3 cbr 1000 ------- 1 0.0 3.0 102 102
- 2.6428 2 3 cbr 1000 ------- 1 0.0 3.0 102 102
+ 2.648 0 2 cbr 1000 ------- 1 0.0 3.0 103 103
- 2.648 0 2 cbr 1000 ------- 1 0.0 3.0 103 103
r 2.6508 2 3 cbr 1000 ------- 1 0.0 3.0 101 101
r 2.6588 0 2 cbr 1000 ------- 1 0.0 3.0 103 103
+ 2.6588 2 3 cbr 1000 ------- 1 0.0 3.0 103 103
- 2.6588 2 3 cbr 1000 ------- 1 0.0 3.0 103 103
+ 2.664 0 2 cbr 1000 ------- 1 0.0 3.0 104 104
- 2.664 0 2 cbr 1000 ------- 1 0.0 3.0 104 104
r 2.6668 2 3 cbr 1000 ------- 1 0.0 3.0 102 102
r 2.6748 0 2 cbr 1000 ------- 1 0.0 3.0 104 104
+ 2.6748 2 3 cbr 1000 ------- 1 0.0 3.0 104 104
- 2.6748 2 3 cbr 1000 ------- 1 0.0 3.0 104 104
+ 2.68 0 2 cbr 1000 ------- 1 0.0 3.0 105 105
- 2.68 0 2 cbr 1000 ------- 1 0.0 3.0 105 105
r 2.6828 2 3 cbr 1000 ------- 1 0.0 3.0 103 103
r 2.6908 0 2 cbr 1000 ------- 1 0.0 3.0 105 105
+ 2.6908 2 3 cbr 1000 ------- 1 0.0 3.0 105 105
- 2.6908 2 3 cbr 1000 ------- 1 0.0 3.0 105 105
+ 2.696 0 2 cbr 1000 ------- 1 0.0 3.0 106 106
- 2.696 0 2 cbr 1000 ------- 1 0.0 3.0 106 106
r 2.6988 2 3 cbr 1000 ------- 1 0.0 3.0 104 104
r 2.7068 0 2 cbr 1000 ------- 1 0.0 3.0 106 106
+ 2.7068 2 3 cbr 1000 ------- 1 0.0 3.0 106 106
- 2.7068 2 3 cbr 1000 ------- 1 0.0 3.0 106 106
+ 2.712 0 2 cbr 1000 ------- 1 0.0 3.0 107 107
- 2.712 0 2 cbr 1000 ------- 1 0.0 3.0 107 107
r 2.7148 2 3 cbr 1000 ------- 1 0.0 3.0 105 105
r 2.7228 0 2 cbr 1000 ------- 1 0.0 3.0 107 107
+ 2.7228 2 3 cbr 1000 ------- 1 0.0 3.0 107 107
- 2.7228 2 3 cbr 1000 ------- 1 0.0 3.0 107 107
+ 2.728 0 2 cbr 1000 ------- 1 0.0 3.0 108 108
- 2.728 0 2 cbr 1000 ------- 1 0.0 3.0 108 108
r 2.7308 2 3 cbr 1000 ------- 1 0.0 3.0 106 106
r 2.7388 0 2 cbr 1000 ------- 1 0.0 3.0 108 108
+ 2.7388 2 3 cbr 1000 ------- 1 0.0 3.0 108 108
- 2.7388 2 3 cbr 1000 ------- 1 0.0 3.0 108 108
+ 2.744 0 2 cbr 1000 ------- 1 0.0 3.0 109 109
- 2.744 0 2 cbr 1000 ------- 1 0.0 3.0 109 109
r 2.7468 2 3 cbr 1000 ------- 1 0.0 3.0 107 107
r 2.7548 0 2 cbr 1000 ------- 1 0.0 3.0 109 109
+ 2.7548 2 3 cbr 1000 ------- 1 0.0 3.0 109 109
- 2.7548 2 3 cbr 1000 ------- 1 0.0 3.0 109 109